TITLE="(Vx,Vy)"
VARIABLES=X,Y,Vx,Vy,Vm,V
ZONE T="T-Dummy" I=83, J=41, F=POINT
0.052410 0.007317 0.000000 0.000000 0.000000 0.000000
0.157229 0.007317 0.000000 0.000000 0.000000 0.000000
0.262048 0.007317 0.000000 0.000000 0.000000 0.000000
0.366867 0.007317 0.000000 0.000000 0.000000 0.000000
0.471687 0.007317 0.000000 0.000000 0.000000 0.000000
0.576506 0.007317 0.000000 0.000000 0.000000 0.000000
0.681325 0.007317 0.000000 0.000000 0.000000 0.000000
0.786145 0.007317 0.000000 0.000000 0.000000 0.000000
0.890964 0.007317 0.000000 0.000000 0.000000 0.000000
0.995783 0.007317 0.000000 0.000000 0.000000 0.000000
1.100602 0.007317 0.000000 0.000000 0.000000 0.000000
1.205422 0.007317 0.000000 0.000000 0.000000 0.000000
1.310241 0.007317 0.000000 0.000000 0.000000 0.000000
1.415060 0.007317 0.000000 0.000000 0.000000 0.000000
1.519880 0.007317 0.000000 0.000000 0.000000 0.000000
1.624699 0.007317 0.000000 0.000000 0.000000 0.000000
1.729518 0.007317 0.000000 0.000000 0.000000 0.000000
1.834337 0.007317 0.000000 0.000000 0.000000 0.000000
1.939157 0.007317 0.000000 0.000000 0.000000 0.000000
2.043976 0.007317 0.000000 0.000000 0.000000 0.000000
2.148795 0.007317 0.000000 0.000000 0.000000 0.000000
2.253614 0.007317 0.000000 0.000000 0.000000 0.000000
2.358434 0.007317 0.000000 0.000000 0.000000 0.000000
2.463253 0.007317 0.000000 0.000000 0.000000 0.000000
2.568072 0.007317 0.000000 0.000000 0.000000 0.000000
2.672892 0.007317 0.000000 0.000000 0.000000 0.000000
2.777711 0.007317 0.000000 0.000000 0.000000 0.000000
2.882530 0.007317 0.000000 0.000000 0.000000 0.000000
2.987349 0.007317 0.000000 0.000000 0.000000 0.000000
3.092169 0.007317 0.000000 0.000000 0.000000 0.000000
3.196988 0.007317 0.000000 0.000000 0.000000 0.000000
3.301807 0.007317 0.000000 0.000000 0.000000 0.000000
3.406627 0.007317 0.000000 0.000000 0.000000 0.000000
3.511446 0.007317 0.000000 0.000000 0.000000 0.000000
3.616265 0.007317 0.000000 0.000000 0.000000 0.000000
3.721084 0.007317 0.000000 0.000000 0.000000 0.000000
3.825904 0.007317 0.000000 0.000000 0.000000 0.000000
3.930723 0.007317 0.000000 0.000000 0.000000 0.000000
4.035542 0.007317 0.000000 0.000000 0.000000 0.000000
4.140361 0.007317 0.000000 0.000000 0.000000 0.000000
4.245181 0.007317 0.000000 0.000000 0.000000 0.000000
4.350000 0.007317 0.000000 0.000000 0.000000 0.000000
4.454819 0.007317 0.000000 0.000000 0.000000 0.000000
4.559639 0.007317 0.000000 0.000000 0.000000 0.000000
4.664458 0.007317 0.000000 0.000000 0.000000 0.000000
4.769277 0.007317 0.000000 0.000000 0.000000 0.000000
4.874096 0.007317 0.000000 0.000000 0.000000 0.000000
4.978916 0.007317 0.000000 0.000000 0.000000 0.000000
5.083735 0.007317 0.000000 0.000000 0.000000 0.000000
5.188554 0.007317 0.000000 0.000000 0.000000 0.000000
5.293373 0.007317 0.000000 0.000000 0.000000 0.000000
5.398193 0.007317 0.000000 0.000000 0.000000 0.000000
5.503012 0.007317 0.000000 0.000000 0.000000 0.000000
5.607831 0.007317 0.000000 0.000000 0.000000 0.000000
5.712651 0.007317 0.000000 0.000000 0.000000 0.000000
5.817470 0.007317 0.000000 0.000000 0.000000 0.000000
5.922289 0.007317 0.000000 0.000000 0.000000 0.000000
6.027108 0.007317 0.000000 0.000000 0.000000 0.000000
6.131928 0.007317 0.000000 0.000000 0.000000 0.000000
6.236747 0.007317 0.000000 0.000000 0.000000 0.000000
6.341566 0.007317 0.000000 0.000000 0.000000 0.000000
6.446386 0.007317 0.000000 0.000000 0.000000 0.000000
6.551205 0.007317 0.000000 0.000000 0.000000 0.000000
6.656024 0.007317 0.000000 0.000000 0.000000 0.000000
6.760843 0.007317 0.000000 0.000000 0.000000 0.000000
6.865663 0.007317 0.000000 0.000000 0.000000 0.000000
6.970482 0.007317 0.000000 0.000000 0.000000 0.000000
7.075301 0.007317 0.000000 0.000000 0.000000 0.000000
7.180120 0.007317 0.000000 0.000000 0.000000 0.000000
7.284940 0.007317 0.000000 0.000000 0.000000 0.000000
7.389759 0.007317 0.000000 0.000000 0.000000 0.000000
7.494578 0.007317 0.000000 0.000000 0.000000 0.000000
7.599398 0.007317 0.000000 0.000000 0.000000 0.000000
7.704217 0.007317 0.000000 0.000000 0.000000 0.000000
7.809036 0.007317 0.000000 0.000000 0.000000 0.000000
7.913855 0.007317 0.000000 0.000000 0.000000 0.000000
8.018675 0.007317 0.000000 0.000000 0.000000 0.000000
8.123494 0.007317 0.000000 0.000000 0.000000 0.000000
8.228313 0.007317 0.000000 0.000000 0.000000 0.000000
8.333133 0.007317 0.000000 0.000000 0.000000 0.000000
8.437952 0.007317 0.000000 0.000000 0.000000 0.000000
8.542771 0.007317 0.000000 0.000000 0.000000 0.000000
8.647590 0.007317 0.000000 0.000000 0.000000 0.000000
0.052410 0.021951 0.000000 0.000000 0.000000 0.000000
0.157229 0.021951 -0.002522 0.000247 0.900000 0.002534
0.262048 0.021951 -0.006432 0.000162 0.900000 0.006434
0.366867 0.021951 -0.008382 0.000070 0.900000 0.008382
0.471687 0.021951 -0.008966 -0.000004 0.900000 0.008966
0.576506 0.021951 -0.008745 -0.000032 0.900000 0.008745
0.681325 0.021951 -0.007834 -0.000087 0.900000 0.007834
0.786145 0.021951 -0.006605 -0.000077 0.900000 0.006605
0.890964 0.021951 -0.005853 -0.000023 0.900000 0.005853
0.995783 0.021951 -0.005798 0.000017 0.900000 0.005798
1.100602 0.021951 -0.006109 0.000010 0.900000 0.006109
1.205422 0.021951 -0.006176 -0.000041 0.900000 0.006176
1.310241 0.021951 -0.005648 -0.000093 0.900000 0.005649
1.415060 0.021951 -0.004651 -0.000123 0.900000 0.004652
1.519880 0.021951 -0.003556 -0.000118 0.900000 0.003558
1.624699 0.021951 -0.002952 -0.000060 0.900000 0.002953
1.729518 0.021951 -0.003300 0.000011 0.900000 0.003300
1.834337 0.021951 -0.004234 0.000018 0.900000 0.004234
1.939157 0.021951 -0.004736 -0.000049 0.900000 0.004736
2.043976 0.021951 -0.004169 -0.000124 0.900000 0.004171
2.148795 0.021951 -0.002741 -0.000161 0.900000 0.002746
2.253614 0.021951 -0.001227 -0.000129 0.900000 0.001233
2.358434 0.021951 -0.000592 -0.000030 0.900000 0.000593
2.463253 0.021951 -0.001473 0.000086 0.900000 0.001475
2.568072 0.021951 -0.003266 0.000090 0.900000 0.003267
2.672892 0.021951 -0.004321 -0.000029 0.900000 0.004321
2.777711 0.021951 -0.003710 -0.000149 0.900000 0.003713
2.882530 0.021951 -0.001879 -0.000199 0.900000 0.001889
2.987349 0.021951 0.000030 -0.000154 0.900000 0.000157
3.092169 0.021951 0.000702 -0.000019 0.900000 0.000703
3.196988 0.021951 -0.000723 0.000140 0.900000 0.000737
3.301807 0.021951 -0.003348 0.000143 0.900000 0.003351
3.406627 0.021951 -0.004840 -0.000024 0.900000 0.004841
3.511446 0.021951 -0.004018 -0.000183 0.900000 0.004022
3.616265 0.021951 -0.001646 -0.000238 0.900000 0.001663
3.721084 0.021951 0.000709 -0.000172 0.900000 0.000730
3.825904 0.021951 0.001415 0.000000 0.900000 0.001415
3.930723 0.021951 -0.000572 0.000198 0.900000 0.000605
4.035542 0.021951 -0.004149 0.000202 0.900000 0.004154
4.140361 0.021951 -0.006467 0.000001 0.900000 0.006467
4.245181 0.021951 -0.006079 -0.000188 0.900000 0.006082
4.350000 0.021951 -0.003843 -0.000260 0.900000 0.003851
4.454819 0.021951 -0.001590 -0.000187 0.900000 0.001601
4.559639 0.021951 -0.001184 -0.000000 0.900000 0.001184
4.664458 0.021951 -0.003584 0.000199 0.900000 0.003590
4.769277 0.021951 -0.007451 0.000196 0.900000 0.007453
4.874096 0.021951 -0.009932 0.000000 0.900000 0.009932
4.978916 0.021951 -0.009855 -0.000164 0.900000 0.009856
5.083735 0.021951 -0.008188 -0.000218 0.900000 0.008191
5.188554 0.021951 -0.006497 -0.000157 0.900000 0.006499
5.293373 0.021951 -0.006249 -0.000006 0.900000 0.006249
5.398193 0.021951 -0.008174 0.000149 0.900000 0.008176
5.503012 0.021951 -0.011168 0.000137 0.900000 0.011169
5.607831 0.021951 -0.012983 -0.000023 0.900000 0.012984
5.712651 0.021951 -0.012746 -0.000151 0.900000 0.012747
5.817470 0.021951 -0.011284 -0.000189 0.900000 0.011285
5.922289 0.021951 -0.009858 -0.000134 0.900000 0.009859
6.027108 0.021951 -0.009608 -0.000009 0.900000 0.009608
6.131928 0.021951 -0.011062 0.000114 0.900000 0.011062
6.236747 0.021951 -0.013373 0.000112 0.900000 0.013373
6.341566 0.021951 -0.014857 -0.000005 0.900000 0.014857
6.446386 0.021951 -0.014836 -0.000100 0.900000 0.014836
6.551205 0.021951 -0.013922 -0.000126 0.900000 0.013923
6.656024 0.021951 -0.013064 -0.000085 0.900000 0.013064
6.760843 0.021951 -0.013053 0.000002 0.900000 0.013053
6.865663 0.021951 -0.014175 0.000082 0.900000 0.014176
6.970482 0.021951 -0.015789 0.000074 0.900000 0.015790
7.075301 0.021951 -0.016789 -0.000004 0.900000 0.016789
7.180120 0.021951 -0.016819 -0.000059 0.900000 0.016819
7.284940 0.021951 -0.016345 -0.000070 0.900000 0.016345
7.389759 0.021951 -0.015956 -0.000046 0.900000 0.015956
7.494578 0.021951 -0.016075 0.000004 0.900000 0.016075
7.599398 0.021951 -0.016845 0.000056 0.900000 0.016845
7.704217 0.021951 -0.017895 0.000060 0.900000 0.017895
7.809036 0.021951 -0.018492 0.000014 0.900000 0.018492
7.913855 0.021951 -0.018087 -0.000037 0.900000 0.018087
8.018675 0.021951 -0.016666 -0.000064 0.900000 0.016666
8.123494 0.021951 -0.014880 -0.000027 0.900000 0.014880
8.228313 0.021951 -0.012762 -0.000022 0.900000 0.012762
8.333133 0.021951 -0.009951 0.000001 0.900000 0.009951
8.437952 0.021951 -0.006536 0.000043 0.900000 0.006536
8.542771 0.021951 -0.002336 0.000101 0.900000 0.002339
8.647590 0.021951 0.000000 0.000000 0.000000 0.000000
0.052410 0.036585 0.000000 0.000000 0.000000 0.000000
0.157229 0.036585 -0.002533 0.000745 0.900000 0.002641
0.262048 0.036585 -0.006456 0.000487 0.900000 0.006474
0.366867 0.036585 -0.008401 0.000209 0.900000 0.008403
0.471687 0.036585 -0.008944 -0.000015 0.900000 0.008944
0.576506 0.036585 -0.008302 -0.000147 0.900000 0.008304
0.681325 0.036585 -0.007537 -0.000172 0.900000 0.007539
0.786145 0.036585 -0.007150 -0.000177 0.900000 0.007153
0.890964 0.036585 -0.006656 -0.000067 0.900000 0.006656
0.995783 0.036585 -0.006279 0.000022 0.900000 0.006279
1.100602 0.036585 -0.006037 -0.000001 0.900000 0.006037
1.205422 0.036585 -0.005728 -0.000124 0.900000 0.005729
1.310241 0.036585 -0.005266 -0.000245 0.900000 0.005272
1.415060 0.036585 -0.004713 -0.000313 0.900000 0.004723
1.519880 0.036585 -0.004132 -0.000309 0.900000 0.004144
1.624699 0.036585 -0.003703 -0.000174 0.900000 0.003707
1.729518 0.036585 -0.003610 -0.000008 0.900000 0.003610
1.834337 0.036585 -0.003712 0.000009 0.900000 0.003712
1.939157 0.036585 -0.003656 -0.000142 0.900000 0.003659
2.043976 0.036585 -0.003249 -0.000310 0.900000 0.003264
2.148795 0.036585 -0.002587 -0.000387 0.900000 0.002616
2.253614 0.036585 -0.001936 -0.000305 0.900000 0.001959
2.358434 0.036585 -0.001607 -0.000071 0.900000 0.001609
2.463253 0.036585 -0.001852 0.000204 0.900000 0.001863
2.568072 0.036585 -0.002452 0.000211 0.900000 0.002461
2.672892 0.036585 -0.002753 -0.000072 0.900000 0.002754
2.777711 0.036585 -0.002439 -0.000352 0.900000 0.002465
2.882530 0.036585 -0.001721 -0.000463 0.900000 0.001782
2.987349 0.036585 -0.001009 -0.000353 0.900000 0.001069
3.092169 0.036585 -0.000765 -0.000031 0.900000 0.000766
3.196988 0.036585 -0.001362 0.000350 0.900000 0.001406
3.301807 0.036585 -0.002440 0.000351 0.900000 0.002465
3.406627 0.036585 -0.002993 -0.000053 0.900000 0.002993
3.511446 0.036585 -0.002597 -0.000423 0.900000 0.002631
3.616265 0.036585 -0.001677 -0.000539 0.900000 0.001762
3.721084 0.036585 -0.000849 -0.000376 0.900000 0.000929
3.825904 0.036585 -0.000686 0.000032 0.900000 0.000686
3.930723 0.036585 -0.001649 0.000511 0.900000 0.001726
4.035542 0.036585 -0.003340 0.000519 0.900000 0.003380
4.140361 0.036585 -0.004541 0.000035 0.900000 0.004541
4.245181 0.036585 -0.004699 -0.000407 0.900000 0.004717
4.350000 0.036585 -0.004204 -0.000573 0.900000 0.004243
4.454819 0.036585 -0.003665 -0.000407 0.900000 0.003688
4.559639 0.036585 -0.003745 0.000027 0.900000 0.003745
4.664458 0.036585 -0.004986 0.000511 0.900000 0.005012
4.769277 0.036585 -0.006976 0.000510 0.900000 0.006994
4.874096 0.036585 -0.008479 0.000040 0.900000 0.008479
4.978916 0.036585 -0.008964 -0.000348 0.900000 0.008971
5.083735 0.036585 -0.008777 -0.000482 0.900000 0.008790
5.188554 0.036585 -0.008433 -0.000350 0.900000 0.008440
5.293373 0.036585 -0.008486 -0.000001 0.900000 0.008486
5.398193 0.036585 -0.009376 0.000371 0.900000 0.009383
5.503012 0.036585 -0.010789 0.000345 0.900000 0.010795
5.607831 0.036585 -0.011786 -0.000037 0.900000 0.011786
5.712651 0.036585 -0.011979 -0.000338 0.900000 0.011984
5.817470 0.036585 -0.011676 -0.000428 0.900000 0.011683
5.922289 0.036585 -0.011288 -0.000306 0.900000 0.011292
6.027108 0.036585 -0.011242 -0.000016 0.900000 0.011243
6.131928 0.036585 -0.011871 0.000284 0.900000 0.011875
6.236747 0.036585 -0.012970 0.000287 0.900000 0.012974
6.341566 0.036585 -0.013850 0.000012 0.900000 0.013850
6.446386 0.036585 -0.014177 -0.000212 0.900000 0.014178
6.551205 0.036585 -0.014140 -0.000276 0.900000 0.014143
6.656024 0.036585 -0.014042 -0.000186 0.900000 0.014043
6.760843 0.036585 -0.014162 0.000012 0.900000 0.014162
6.865663 0.036585 -0.014682 0.000204 0.900000 0.014684
6.970482 0.036585 -0.015448 0.000190 0.900000 0.015449
7.075301 0.036585 -0.016045 0.000008 0.900000 0.016045
7.180120 0.036585 -0.016298 -0.000123 0.900000 0.016299
7.284940 0.036585 -0.016340 -0.000152 0.900000 0.016340
7.389759 0.036585 -0.016344 -0.000106 0.900000 0.016345
7.494578 0.036585 -0.016462 0.000010 0.900000 0.016462
7.599398 0.036585 -0.016803 0.000137 0.900000 0.016803
7.704217 0.036585 -0.017279 0.000157 0.900000 0.017280
7.809036 0.036585 -0.017591 0.000055 0.900000 0.017591
7.913855 0.036585 -0.017529 -0.000044 0.900000 0.017529
8.018675 0.036585 -0.016979 -0.000098 0.900000 0.016979
8.123494 0.036585 -0.015291 -0.000137 0.900000 0.015291
8.228313 0.036585 -0.012734 -0.000070 0.900000 0.012734
8.333133 0.036585 -0.009886 0.000003 0.900000 0.009886
8.437952 0.036585 -0.006460 0.000130 0.900000 0.006462
8.542771 0.036585 -0.002299 0.000307 0.900000 0.002319
8.647590 0.036585 0.000000 0.000000 0.000000 0.000000
0.052410 0.051220 0.000000 0.000000 0.000000 0.000000
0.157229 0.051220 -0.002557 0.001251 0.900000 0.002846
0.262048 0.051220 -0.006507 0.000815 0.900000 0.006558
0.366867 0.051220 -0.008455 0.000349 0.900000 0.008463
0.471687 0.051220 -0.008995 -0.000030 0.900000 0.008995
0.576506 0.051220 -0.008491 -0.000292 0.900000 0.008496
0.681325 0.051220 -0.007763 -0.000185 0.900000 0.007765
0.786145 0.051220 -0.007250 -0.000228 0.900000 0.007254
0.890964 0.051220 -0.006738 -0.000110 0.900000 0.006739
0.995783 0.051220 -0.006371 -0.000001 0.900000 0.006371
1.100602 0.051220 -0.006131 -0.000043 0.900000 0.006131
1.205422 0.051220 -0.005813 -0.000209 0.900000 0.005816
1.310241 0.051220 -0.005334 -0.000363 0.900000 0.005347
1.415060 0.051220 -0.004767 -0.000451 0.900000 0.004788
1.519880 0.051220 -0.004172 -0.000458 0.900000 0.004197
1.624699 0.051220 -0.003736 -0.000283 0.900000 0.003747
1.729518 0.051220 -0.003649 -0.000068 0.900000 0.003649
1.834337 0.051220 -0.003757 -0.000047 0.900000 0.003757
1.939157 0.051220 -0.003702 -0.000234 0.900000 0.003709
2.043976 0.051220 -0.003286 -0.000434 0.900000 0.003315
2.148795 0.051220 -0.002609 -0.000518 0.900000 0.002660
2.253614 0.051220 -0.001943 -0.000403 0.900000 0.001985
2.358434 0.051220 -0.001610 -0.000096 0.900000 0.001613
2.463253 0.051220 -0.001866 0.000268 0.900000 0.001885
2.568072 0.051220 -0.002484 0.000271 0.900000 0.002499
2.672892 0.051220 -0.002792 -0.000104 0.900000 0.002794
2.777711 0.051220 -0.002465 -0.000462 0.900000 0.002507
2.882530 0.051220 -0.001724 -0.000595 0.900000 0.001824
2.987349 0.051220 -0.000992 -0.000446 0.900000 0.001088
3.092169 0.051220 -0.000743 -0.000023 0.900000 0.000743
3.196988 0.051220 -0.001359 0.000488 0.900000 0.001444
3.301807 0.051220 -0.002467 0.000482 0.900000 0.002514
3.406627 0.051220 -0.003030 -0.000064 0.900000 0.003031
3.511446 0.051220 -0.002615 -0.000542 0.900000 0.002671
3.616265 0.051220 -0.001662 -0.000674 0.900000 0.001794
3.721084 0.051220 -0.000810 -0.000447 0.900000 0.000925
3.825904 0.051220 -0.000644 0.000093 0.900000 0.000650
3.930723 0.051220 -0.001629 0.000737 0.900000 0.001788
4.035542 0.051220 -0.003353 0.000746 0.900000 0.003434
4.140361 0.051220 -0.004563 0.000096 0.900000 0.004564
4.245181 0.051220 -0.004700 -0.000474 0.900000 0.004724
4.350000 0.051220 -0.004168 -0.000684 0.900000 0.004224
4.454819 0.051220 -0.003599 -0.000480 0.900000 0.003631
4.559639 0.051220 -0.003676 0.000077 0.900000 0.003677
4.664458 0.051220 -0.004940 0.000733 0.900000 0.004994
4.769277 0.051220 -0.006960 0.000744 0.900000 0.006999
4.874096 0.051220 -0.008468 0.000116 0.900000 0.008469
4.978916 0.051220 -0.008930 -0.000395 0.900000 0.008938
5.083735 0.051220 -0.008712 -0.000580 0.900000 0.008731
5.188554 0.051220 -0.008345 -0.000426 0.900000 0.008356
5.293373 0.051220 -0.008397 0.000017 0.900000 0.008397
5.398193 0.051220 -0.009305 0.000515 0.900000 0.009320
5.503012 0.051220 -0.010743 0.000488 0.900000 0.010754
5.607831 0.051220 -0.011740 -0.000021 0.900000 0.011740
5.712651 0.051220 -0.011910 -0.000412 0.900000 0.011918
5.817470 0.051220 -0.011582 -0.000535 0.900000 0.011594
5.922289 0.051220 -0.011177 -0.000386 0.900000 0.011184
6.027108 0.051220 -0.011129 -0.000014 0.900000 0.011130
6.131928 0.051220 -0.011772 0.000394 0.900000 0.011778
6.236747 0.051220 -0.012889 0.000414 0.900000 0.012896
6.341566 0.051220 -0.013770 0.000054 0.900000 0.013770
6.446386 0.051220 -0.014081 -0.000238 0.900000 0.014083
6.551205 0.051220 -0.014026 -0.000327 0.900000 0.014030
6.656024 0.051220 -0.013915 -0.000222 0.900000 0.013917
6.760843 0.051220 -0.014032 0.000027 0.900000 0.014032
6.865663 0.051220 -0.014558 0.000282 0.900000 0.014561
6.970482 0.051220 -0.015332 0.000273 0.900000 0.015334
7.075301 0.051220 -0.015924 0.000037 0.900000 0.015924
7.180120 0.051220 -0.016164 -0.000134 0.900000 0.016165
7.284940 0.051220 -0.016191 -0.000180 0.900000 0.016192
7.389759 0.051220 -0.016179 -0.000135 0.900000 0.016179
7.494578 0.051220 -0.016279 0.000009 0.900000 0.016279
7.599398 0.051220 -0.016610 0.000186 0.900000 0.016611
7.704217 0.051220 -0.017083 0.000227 0.900000 0.017085
7.809036 0.051220 -0.017390 0.000107 0.900000 0.017391
7.913855 0.051220 -0.017276 0.000010 0.900000 0.017276
8.018675 0.051220 -0.016599 -0.000055 0.900000 0.016600
8.123494 0.051220 -0.015029 -0.000276 0.900000 0.015032
8.228313 0.051220 -0.012658 -0.000123 0.900000 0.012659
8.333133 0.051220 -0.009791 0.000001 0.900000 0.009791
8.437952 0.051220 -0.006360 0.000215 0.900000 0.006364
8.542771 0.051220 -0.002250 0.000523 0.900000 0.002310
8.647590 0.051220 0.000000 0.000000 0.000000 0.000000
0.052410 0.065854 0.000000 0.000000 0.000000 0.000000
0.157229 0.065854 -0.002593 0.001769 0.900000 0.003139
0.262048 0.065854 -0.006587 0.001148 0.900000 0.006686
0.366867 0.065854 -0.008539 0.000490 0.900000 0.008553
0.471687 0.065854 -0.009080 -0.000044 0.900000 0.009080
0.576506 0.065854 -0.008670 -0.000405 0.900000 0.008680
0.681325 0.065854 -0.007961 -0.000229 0.900000 0.007964
0.786145 0.065854 -0.007354 -0.000291 0.900000 0.007360
0.890964 0.065854 -0.006824 -0.000156 0.900000 0.006825
0.995783 0.065854 -0.006466 -0.000025 0.900000 0.006466
1.100602 0.065854 -0.006224 -0.000087 0.900000 0.006224
1.205422 0.065854 -0.005891 -0.000299 0.900000 0.005898
1.310241 0.065854 -0.005396 -0.000486 0.900000 0.005418
1.415060 0.065854 -0.004822 -0.000594 0.900000 0.004858
1.519880 0.065854 -0.004220 -0.000614 0.900000 0.004264
1.624699 0.065854 -0.003778 -0.000398 0.900000 0.003799
1.729518 0.065854 -0.003692 -0.000133 0.900000 0.003694
1.834337 0.065854 -0.003796 -0.000109 0.900000 0.003798
1.939157 0.065854 -0.003733 -0.000331 0.900000 0.003747
2.043976 0.065854 -0.003310 -0.000563 0.900000 0.003358
2.148795 0.065854 -0.002628 -0.000655 0.900000 0.002708
2.253614 0.065854 -0.001959 -0.000506 0.900000 0.002024
2.358434 0.065854 -0.001625 -0.000126 0.900000 0.001630
2.463253 0.065854 -0.001887 0.000330 0.900000 0.001916
2.568072 0.065854 -0.002515 0.000329 0.900000 0.002536
2.672892 0.065854 -0.002816 -0.000141 0.900000 0.002820
2.777711 0.065854 -0.002475 -0.000578 0.900000 0.002542
2.882530 0.065854 -0.001723 -0.000737 0.900000 0.001874
2.987349 0.065854 -0.000986 -0.000549 0.900000 0.001128
3.092169 0.065854 -0.000734 -0.000023 0.900000 0.000734
3.196988 0.065854 -0.001362 0.000623 0.900000 0.001498
3.301807 0.065854 -0.002493 0.000610 0.900000 0.002566
3.406627 0.065854 -0.003052 -0.000083 0.900000 0.003053
3.511446 0.065854 -0.002613 -0.000672 0.900000 0.002698
3.616265 0.065854 -0.001642 -0.000820 0.900000 0.001836
3.721084 0.065854 -0.000784 -0.000527 0.900000 0.000945
3.825904 0.065854 -0.000614 0.000144 0.900000 0.000631
3.930723 0.065854 -0.001613 0.000960 0.900000 0.001877
4.035542 0.065854 -0.003361 0.000969 0.900000 0.003498
4.140361 0.065854 -0.004568 0.000148 0.900000 0.004571
4.245181 0.065854 -0.004681 -0.000553 0.900000 0.004714
4.350000 0.065854 -0.004131 -0.000807 0.900000 0.004209
4.454819 0.065854 -0.003552 -0.000565 0.900000 0.003597
4.559639 0.065854 -0.003622 0.000118 0.900000 0.003624
4.664458 0.065854 -0.004895 0.000950 0.900000 0.004987
4.769277 0.065854 -0.006936 0.000974 0.900000 0.007005
4.874096 0.065854 -0.008442 0.000184 0.900000 0.008444
4.978916 0.065854 -0.008880 -0.000451 0.900000 0.008892
5.083735 0.065854 -0.008648 -0.000687 0.900000 0.008676
5.188554 0.065854 -0.008275 -0.000512 0.900000 0.008291
5.293373 0.065854 -0.008322 0.000026 0.900000 0.008322
5.398193 0.065854 -0.009239 0.000657 0.900000 0.009262
5.503012 0.065854 -0.010691 0.000626 0.900000 0.010709
5.607831 0.065854 -0.011678 -0.000012 0.900000 0.011678
5.712651 0.065854 -0.011828 -0.000495 0.900000 0.011838
5.817470 0.065854 -0.011488 -0.000650 0.900000 0.011507
5.922289 0.065854 -0.011078 -0.000475 0.900000 0.011089
6.027108 0.065854 -0.011027 -0.000019 0.900000 0.011027
6.131928 0.065854 -0.011674 0.000500 0.900000 0.011684
6.236747 0.065854 -0.012802 0.000539 0.900000 0.012813
6.341566 0.065854 -0.013679 0.000090 0.900000 0.013680
6.446386 0.065854 -0.013975 -0.000270 0.900000 0.013978
6.551205 0.065854 -0.013912 -0.000384 0.900000 0.013917
6.656024 0.065854 -0.013797 -0.000263 0.900000 0.013800
6.760843 0.065854 -0.013910 0.000037 0.900000 0.013910
6.865663 0.065854 -0.014437 0.000358 0.900000 0.014441
6.970482 0.065854 -0.015212 0.000352 0.900000 0.015216
7.075301 0.065854 -0.015796 0.000061 0.900000 0.015796
7.180120 0.065854 -0.016025 -0.000149 0.900000 0.016026
7.284940 0.065854 -0.016044 -0.000212 0.900000 0.016045
7.389759 0.065854 -0.016019 -0.000170 0.900000 0.016020
7.494578 0.065854 -0.016101 0.000003 0.900000 0.016101
7.599398 0.065854 -0.016418 0.000231 0.900000 0.016420
7.704217 0.065854 -0.016887 0.000296 0.900000 0.016889
7.809036 0.065854 -0.017185 0.000154 0.900000 0.017186
7.913855 0.065854 -0.017026 0.000047 0.900000 0.017026
8.018675 0.065854 -0.016262 -0.000040 0.900000 0.016262
8.123494 0.065854 -0.014779 -0.000366 0.900000 0.014784
8.228313 0.065854 -0.012549 -0.000177 0.900000 0.012550
8.333133 0.065854 -0.009678 -0.000003 0.900000 0.009678
8.437952 0.065854 -0.006240 0.000300 0.900000 0.006247
8.542771 0.065854 -0.002189 0.000753 0.900000 0.002315
8.647590 0.065854 0.000000 0.000000 0.000000 0.000000
0.052410 0.080488 0.000000 0.000000 0.000000 0.000000
0.157229 0.080488 -0.002641 0.002302 0.900000 0.003503
0.262048 0.080488 -0.006691 0.001487 0.900000 0.006854
0.366867 0.080488 -0.008650 0.000632 0.900000 0.008673
0.471687 0.080488 -0.009194 -0.000057 0.900000 0.009194
0.576506 0.080488 -0.008843 -0.000500 0.900000 0.008857
0.681325 0.080488 -0.008139 -0.000298 0.900000 0.008144
0.786145 0.080488 -0.007460 -0.000367 0.900000 0.007469
0.890964 0.080488 -0.006913 -0.000203 0.900000 0.006916
0.995783 0.080488 -0.006565 -0.000050 0.900000 0.006565
1.100602 0.080488 -0.006317 -0.000135 0.900000 0.006318
1.205422 0.080488 -0.005964 -0.000393 0.900000 0.005977
1.310241 0.080488 -0.005456 -0.000613 0.900000 0.005490
1.415060 0.080488 -0.004880 -0.000741 0.900000 0.004936
1.519880 0.080488 -0.004277 -0.000777 0.900000 0.004347
1.624699 0.080488 -0.003832 -0.000519 0.900000 0.003867
1.729518 0.080488 -0.003742 -0.000206 0.900000 0.003748
1.834337 0.080488 -0.003831 -0.000178 0.900000 0.003835
1.939157 0.080488 -0.003751 -0.000432 0.900000 0.003776
2.043976 0.080488 -0.003324 -0.000696 0.900000 0.003396
2.148795 0.080488 -0.002645 -0.000796 0.900000 0.002762
2.253614 0.080488 -0.001985 -0.000614 0.900000 0.002078
2.358434 0.080488 -0.001656 -0.000162 0.900000 0.001663
2.463253 0.080488 -0.001919 0.000389 0.900000 0.001958
2.568072 0.080488 -0.002541 0.000382 0.900000 0.002570
2.672892 0.080488 -0.002827 -0.000184 0.900000 0.002833
2.777711 0.080488 -0.002474 -0.000701 0.900000 0.002571
2.882530 0.080488 -0.001721 -0.000884 0.900000 0.001935
2.987349 0.080488 -0.000991 -0.000658 0.900000 0.001190
3.092169 0.080488 -0.000742 -0.000031 0.900000 0.000743
3.196988 0.080488 -0.001377 0.000752 0.900000 0.001569
3.301807 0.080488 -0.002514 0.000730 0.900000 0.002618
3.406627 0.080488 -0.003057 -0.000113 0.900000 0.003059
3.511446 0.080488 -0.002595 -0.000813 0.900000 0.002719
3.616265 0.080488 -0.001617 -0.000975 0.900000 0.001888
3.721084 0.080488 -0.000768 -0.000617 0.900000 0.000985
3.825904 0.080488 -0.000603 0.000184 0.900000 0.000630
3.930723 0.080488 -0.001607 0.001176 0.900000 0.001991
4.035542 0.080488 -0.003361 0.001185 0.900000 0.003564
4.140361 0.080488 -0.004551 0.000189 0.900000 0.004555
4.245181 0.080488 -0.004641 -0.000643 0.900000 0.004686
4.350000 0.080488 -0.004089 -0.000942 0.900000 0.004196
4.454819 0.080488 -0.003518 -0.000661 0.900000 0.003579
4.559639 0.080488 -0.003585 0.000146 0.900000 0.003588
4.664458 0.080488 -0.004855 0.001159 0.900000 0.004992
4.769277 0.080488 -0.006900 0.001197 0.900000 0.007003
4.874096 0.080488 -0.008390 0.000241 0.900000 0.008394
4.978916 0.080488 -0.008810 -0.000517 0.900000 0.008825
5.083735 0.080488 -0.008578 -0.000804 0.900000 0.008615
5.188554 0.080488 -0.008212 -0.000607 0.900000 0.008235
5.293373 0.080488 -0.008259 0.000026 0.900000 0.008259
5.398193 0.080488 -0.009174 0.000792 0.900000 0.009208
5.503012 0.080488 -0.010624 0.000759 0.900000 0.010651
5.607831 0.080488 -0.011591 -0.000014 0.900000 0.011591
5.712651 0.080488 -0.011722 -0.000585 0.900000 0.011737
5.817470 0.080488 -0.011383 -0.000771 0.900000 0.011409
5.922289 0.080488 -0.010980 -0.000571 0.900000 0.010995
6.027108 0.080488 -0.010929 -0.000031 0.900000 0.010929
6.131928 0.080488 -0.011571 0.000601 0.900000 0.011587
6.236747 0.080488 -0.012696 0.000659 0.900000 0.012713
6.341566 0.080488 -0.013563 0.000121 0.900000 0.013564
6.446386 0.080488 -0.013848 -0.000307 0.900000 0.013852
6.551205 0.080488 -0.013786 -0.000446 0.900000 0.013793
6.656024 0.080488 -0.013675 -0.000310 0.900000 0.013679
6.760843 0.080488 -0.013788 0.000041 0.900000 0.013788
6.865663 0.080488 -0.014309 0.000429 0.900000 0.014315
6.970482 0.080488 -0.015074 0.000427 0.900000 0.015080
7.075301 0.080488 -0.015645 0.000081 0.900000 0.015645
7.180120 0.080488 -0.015866 -0.000168 0.900000 0.015867
7.284940 0.080488 -0.015884 -0.000248 0.900000 0.015886
7.389759 0.080488 -0.015852 -0.000212 0.900000 0.015853
7.494578 0.080488 -0.015916 -0.000011 0.900000 0.015916
7.599398 0.080488 -0.016214 0.000273 0.900000 0.016217
7.704217 0.080488 -0.016672 0.000362 0.900000 0.016676
7.809036 0.080488 -0.016962 0.000198 0.900000 0.016963
7.913855 0.080488 -0.016767 0.000070 0.900000 0.016767
8.018675 0.080488 -0.015943 -0.000046 0.900000 0.015943
8.123494 0.080488 -0.014527 -0.000424 0.900000 0.014533
8.228313 0.080488 -0.012404 -0.000228 0.900000 0.012406
8.333133 0.080488 -0.009538 -0.000009 0.900000 0.009538
8.437952 0.080488 -0.006091 0.000384 0.900000 0.006103
8.542771 0.080488 -0.002114 0.001000 0.900000 0.002339
8.647590 0.080488 0.000000 0.000000 0.000000 0.000000
0.052410 0.095122 0.000000 0.000000 0.000000 0.000000
0.157229 0.095122 -0.002704 0.002855 0.900000 0.003932
0.262048 0.095122 -0.006824 0.001832 0.900000 0.007066
0.366867 0.095122 -0.008788 0.000776 0.900000 0.008823
0.471687 0.095122 -0.009333 -0.000069 0.900000 0.009334
0.576506 0.095122 -0.009011 -0.000588 0.900000 0.009030
0.681325 0.095122 -0.008299 -0.000388 0.900000 0.008308
0.786145 0.095122 -0.007564 -0.000457 0.900000 0.007577
0.890964 0.095122 -0.007003 -0.000252 0.900000 0.007008
0.995783 0.095122 -0.006667 -0.000076 0.900000 0.006667
1.100602 0.095122 -0.006408 -0.000187 0.900000 0.006411
1.205422 0.095122 -0.006031 -0.000492 0.900000 0.006051
1.310241 0.095122 -0.005509 -0.000744 0.900000 0.005559
1.415060 0.095122 -0.004940 -0.000890 0.900000 0.005020
1.519880 0.095122 -0.004341 -0.000949 0.900000 0.004444
1.624699 0.095122 -0.003895 -0.000647 0.900000 0.003948
1.729518 0.095122 -0.003799 -0.000288 0.900000 0.003809
1.834337 0.095122 -0.003858 -0.000259 0.900000 0.003867
1.939157 0.095122 -0.003754 -0.000540 0.900000 0.003792
2.043976 0.095122 -0.003326 -0.000832 0.900000 0.003428
2.148795 0.095122 -0.002660 -0.000938 0.900000 0.002821
2.253614 0.095122 -0.002020 -0.000725 0.900000 0.002146
2.358434 0.095122 -0.001701 -0.000203 0.900000 0.001713
2.463253 0.095122 -0.001960 0.000442 0.900000 0.002009
2.568072 0.095122 -0.002563 0.000428 0.900000 0.002598
2.672892 0.095122 -0.002822 -0.000234 0.900000 0.002832
2.777711 0.095122 -0.002459 -0.000830 0.900000 0.002595
2.882530 0.095122 -0.001717 -0.001038 0.900000 0.002006
2.987349 0.095122 -0.001006 -0.000775 0.900000 0.001270
3.092169 0.095122 -0.000768 -0.000049 0.900000 0.000769
3.196988 0.095122 -0.001403 0.000873 0.900000 0.001652
3.301807 0.095122 -0.002529 0.000840 0.900000 0.002665
3.406627 0.095122 -0.003044 -0.000156 0.900000 0.003048
3.511446 0.095122 -0.002559 -0.000964 0.900000 0.002734
3.616265 0.095122 -0.001586 -0.001139 0.900000 0.001953
3.721084 0.095122 -0.000763 -0.000716 0.900000 0.001046
3.825904 0.095122 -0.000611 0.000211 0.900000 0.000646
3.930723 0.095122 -0.001611 0.001382 0.900000 0.002123
4.035542 0.095122 -0.003352 0.001390 0.900000 0.003629
4.140361 0.095122 -0.004511 0.000217 0.900000 0.004516
4.245181 0.095122 -0.004583 -0.000742 0.900000 0.004642
4.350000 0.095122 -0.004045 -0.001084 0.900000 0.004187