TITLE="(Vx,Vy)"
VARIABLES=X,Y,Vx,Vy,Vm,V
ZONE T="T-Dummy" I=83, J=41, F=POINT
0.052410 0.007317 0.000000 0.000000 0.000000 0.000000
0.157229 0.007317 0.000000 0.000000 0.000000 0.000000
0.262048 0.007317 0.000000 0.000000 0.000000 0.000000
0.366867 0.007317 0.000000 0.000000 0.000000 0.000000
0.471687 0.007317 0.000000 0.000000 0.000000 0.000000
0.576506 0.007317 0.000000 0.000000 0.000000 0.000000
0.681325 0.007317 0.000000 0.000000 0.000000 0.000000
0.786145 0.007317 0.000000 0.000000 0.000000 0.000000
0.890964 0.007317 0.000000 0.000000 0.000000 0.000000
0.995783 0.007317 0.000000 0.000000 0.000000 0.000000
1.100602 0.007317 0.000000 0.000000 0.000000 0.000000
1.205422 0.007317 0.000000 0.000000 0.000000 0.000000
1.310241 0.007317 0.000000 0.000000 0.000000 0.000000
1.415060 0.007317 0.000000 0.000000 0.000000 0.000000
1.519880 0.007317 0.000000 0.000000 0.000000 0.000000
1.624699 0.007317 0.000000 0.000000 0.000000 0.000000
1.729518 0.007317 0.000000 0.000000 0.000000 0.000000
1.834337 0.007317 0.000000 0.000000 0.000000 0.000000
1.939157 0.007317 0.000000 0.000000 0.000000 0.000000
2.043976 0.007317 0.000000 0.000000 0.000000 0.000000
2.148795 0.007317 0.000000 0.000000 0.000000 0.000000
2.253614 0.007317 0.000000 0.000000 0.000000 0.000000
2.358434 0.007317 0.000000 0.000000 0.000000 0.000000
2.463253 0.007317 0.000000 0.000000 0.000000 0.000000
2.568072 0.007317 0.000000 0.000000 0.000000 0.000000
2.672892 0.007317 0.000000 0.000000 0.000000 0.000000
2.777711 0.007317 0.000000 0.000000 0.000000 0.000000
2.882530 0.007317 0.000000 0.000000 0.000000 0.000000
2.987349 0.007317 0.000000 0.000000 0.000000 0.000000
3.092169 0.007317 0.000000 0.000000 0.000000 0.000000
3.196988 0.007317 0.000000 0.000000 0.000000 0.000000
3.301807 0.007317 0.000000 0.000000 0.000000 0.000000
3.406627 0.007317 0.000000 0.000000 0.000000 0.000000
3.511446 0.007317 0.000000 0.000000 0.000000 0.000000
3.616265 0.007317 0.000000 0.000000 0.000000 0.000000
3.721084 0.007317 0.000000 0.000000 0.000000 0.000000
3.825904 0.007317 0.000000 0.000000 0.000000 0.000000
3.930723 0.007317 0.000000 0.000000 0.000000 0.000000
4.035542 0.007317 0.000000 0.000000 0.000000 0.000000
4.140361 0.007317 0.000000 0.000000 0.000000 0.000000
4.245181 0.007317 0.000000 0.000000 0.000000 0.000000
4.350000 0.007317 0.000000 0.000000 0.000000 0.000000
4.454819 0.007317 0.000000 0.000000 0.000000 0.000000
4.559639 0.007317 0.000000 0.000000 0.000000 0.000000
4.664458 0.007317 0.000000 0.000000 0.000000 0.000000
4.769277 0.007317 0.000000 0.000000 0.000000 0.000000
4.874096 0.007317 0.000000 0.000000 0.000000 0.000000
4.978916 0.007317 0.000000 0.000000 0.000000 0.000000
5.083735 0.007317 0.000000 0.000000 0.000000 0.000000
5.188554 0.007317 0.000000 0.000000 0.000000 0.000000
5.293373 0.007317 0.000000 0.000000 0.000000 0.000000
5.398193 0.007317 0.000000 0.000000 0.000000 0.000000
5.503012 0.007317 0.000000 0.000000 0.000000 0.000000
5.607831 0.007317 0.000000 0.000000 0.000000 0.000000
5.712651 0.007317 0.000000 0.000000 0.000000 0.000000
5.817470 0.007317 0.000000 0.000000 0.000000 0.000000
5.922289 0.007317 0.000000 0.000000 0.000000 0.000000
6.027108 0.007317 0.000000 0.000000 0.000000 0.000000
6.131928 0.007317 0.000000 0.000000 0.000000 0.000000
6.236747 0.007317 0.000000 0.000000 0.000000 0.000000
6.341566 0.007317 0.000000 0.000000 0.000000 0.000000
6.446386 0.007317 0.000000 0.000000 0.000000 0.000000
6.551205 0.007317 0.000000 0.000000 0.000000 0.000000
6.656024 0.007317 0.000000 0.000000 0.000000 0.000000
6.760843 0.007317 0.000000 0.000000 0.000000 0.000000
6.865663 0.007317 0.000000 0.000000 0.000000 0.000000
6.970482 0.007317 0.000000 0.000000 0.000000 0.000000
7.075301 0.007317 0.000000 0.000000 0.000000 0.000000
7.180120 0.007317 0.000000 0.000000 0.000000 0.000000
7.284940 0.007317 0.000000 0.000000 0.000000 0.000000
7.389759 0.007317 0.000000 0.000000 0.000000 0.000000
7.494578 0.007317 0.000000 0.000000 0.000000 0.000000
7.599398 0.007317 0.000000 0.000000 0.000000 0.000000
7.704217 0.007317 0.000000 0.000000 0.000000 0.000000
7.809036 0.007317 0.000000 0.000000 0.000000 0.000000
7.913855 0.007317 0.000000 0.000000 0.000000 0.000000
8.018675 0.007317 0.000000 0.000000 0.000000 0.000000
8.123494 0.007317 0.000000 0.000000 0.000000 0.000000
8.228313 0.007317 0.000000 0.000000 0.000000 0.000000
8.333133 0.007317 0.000000 0.000000 0.000000 0.000000
8.437952 0.007317 0.000000 0.000000 0.000000 0.000000
8.542771 0.007317 0.000000 0.000000 0.000000 0.000000
8.647590 0.007317 0.000000 0.000000 0.000000 0.000000
0.052410 0.021951 0.000000 0.000000 0.000000 0.000000
0.157229 0.021951 0.000085 0.000202 0.900000 0.000219
0.262048 0.021951 0.000713 0.000113 0.900000 0.000722
0.366867 0.021951 0.001905 0.000053 0.900000 0.001906
0.471687 0.021951 0.003102 0.000019 0.900000 0.003102
0.576506 0.021951 0.004072 -0.000009 0.900000 0.004072
0.681325 0.021951 0.005226 -0.000076 0.900000 0.005227
0.786145 0.021951 0.006489 -0.000072 0.900000 0.006490
0.890964 0.021951 0.007205 -0.000039 0.900000 0.007205
0.995783 0.021951 0.007250 -0.000004 0.900000 0.007250
1.100602 0.021951 0.006844 0.000004 0.900000 0.006844
1.205422 0.021951 0.006530 -0.000037 0.900000 0.006531
1.310241 0.021951 0.006723 -0.000089 0.900000 0.006724
1.415060 0.021951 0.007335 -0.000119 0.900000 0.007336
1.519880 0.021951 0.007991 -0.000114 0.900000 0.007992
1.624699 0.021951 0.008171 -0.000065 0.900000 0.008171
1.729518 0.021951 0.007448 0.000001 0.900000 0.007448
1.834337 0.021951 0.006152 0.000004 0.900000 0.006152
1.939157 0.021951 0.005293 -0.000070 0.900000 0.005293
2.043976 0.021951 0.005469 -0.000149 0.900000 0.005471
2.148795 0.021951 0.006422 -0.000181 0.900000 0.006425
2.253614 0.021951 0.007417 -0.000150 0.900000 0.007419
2.358434 0.021951 0.007605 -0.000055 0.900000 0.007605
2.463253 0.021951 0.006386 0.000067 0.900000 0.006387
2.568072 0.021951 0.004357 0.000075 0.900000 0.004358
2.672892 0.021951 0.003155 -0.000044 0.900000 0.003155
2.777711 0.021951 0.003646 -0.000165 0.900000 0.003649
2.882530 0.021951 0.005408 -0.000223 0.900000 0.005412
2.987349 0.021951 0.007319 -0.000180 0.900000 0.007321
3.092169 0.021951 0.008023 -0.000040 0.900000 0.008024
3.196988 0.021951 0.006645 0.000129 0.900000 0.006647
3.301807 0.021951 0.004035 0.000137 0.900000 0.004037
3.406627 0.021951 0.002452 -0.000031 0.900000 0.002452
3.511446 0.021951 0.003050 -0.000194 0.900000 0.003056
3.616265 0.021951 0.005126 -0.000259 0.900000 0.005133
3.721084 0.021951 0.007200 -0.000200 0.900000 0.007203
3.825904 0.021951 0.007695 -0.000027 0.900000 0.007695
3.930723 0.021951 0.005640 0.000177 0.900000 0.005643
4.035542 0.021951 0.002124 0.000188 0.900000 0.002133
4.140361 0.021951 -0.000116 -0.000012 0.900000 0.000117
4.245181 0.021951 0.000300 -0.000207 0.900000 0.000364
4.350000 0.021951 0.002549 -0.000288 0.900000 0.002566
4.454819 0.021951 0.004831 -0.000223 0.900000 0.004836
4.559639 0.021951 0.005317 -0.000040 0.900000 0.005317
4.664458 0.021951 0.003095 0.000160 0.900000 0.003099
4.769277 0.021951 -0.000564 0.000158 0.900000 0.000586
4.874096 0.021951 -0.002932 -0.000040 0.900000 0.002932
4.978916 0.021951 -0.002856 -0.000210 0.900000 0.002864
5.083735 0.021951 -0.001306 -0.000258 0.900000 0.001331
5.188554 0.021951 0.000126 -0.000182 0.900000 0.000221
5.293373 0.021951 0.000101 -0.000024 0.900000 0.000103
5.398193 0.021951 -0.001881 0.000127 0.900000 0.001886
5.503012 0.021951 -0.004708 0.000121 0.900000 0.004710
5.607831 0.021951 -0.006324 -0.000026 0.900000 0.006324
5.712651 0.021951 -0.005953 -0.000145 0.900000 0.005954
5.817470 0.021951 -0.004411 -0.000176 0.900000 0.004415
5.922289 0.021951 -0.002917 -0.000125 0.900000 0.002920
6.027108 0.021951 -0.002501 -0.000010 0.900000 0.002501
6.131928 0.021951 -0.003634 0.000106 0.900000 0.003636
6.236747 0.021951 -0.005559 0.000103 0.900000 0.005560
6.341566 0.021951 -0.006738 -0.000008 0.900000 0.006738
6.446386 0.021951 -0.006596 -0.000096 0.900000 0.006596
6.551205 0.021951 -0.005728 -0.000119 0.900000 0.005729
6.656024 0.021951 -0.005000 -0.000077 0.900000 0.005000
6.760843 0.021951 -0.005156 0.000010 0.900000 0.005156
6.865663 0.021951 -0.006479 0.000093 0.900000 0.006479
6.970482 0.021951 -0.008346 0.000089 0.900000 0.008347
7.075301 0.021951 -0.009710 0.000016 0.900000 0.009710
7.180120 0.021951 -0.010241 -0.000038 0.900000 0.010241
7.284940 0.021951 -0.010395 -0.000042 0.900000 0.010395
7.389759 0.021951 -0.010710 -0.000013 0.900000 0.010710
7.494578 0.021951 -0.011519 0.000034 0.900000 0.011519
7.599398 0.021951 -0.012820 0.000074 0.900000 0.012820
7.704217 0.021951 -0.014147 0.000068 0.900000 0.014148
7.809036 0.021951 -0.014856 0.000019 0.900000 0.014856
7.913855 0.021951 -0.014500 -0.000032 0.900000 0.014500
8.018675 0.021951 -0.013310 -0.000028 0.900000 0.013310
8.123494 0.021951 -0.011924 0.000005 0.900000 0.011924
8.228313 0.021951 -0.009899 -0.000018 0.900000 0.009899
8.333133 0.021951 -0.006912 0.000003 0.900000 0.006912
8.437952 0.021951 -0.003699 0.000060 0.900000 0.003699
8.542771 0.021951 -0.001062 0.000156 0.900000 0.001074
8.647590 0.021951 0.000000 0.000000 0.000000 0.000000
0.052410 0.036585 0.000000 0.000000 0.000000 0.000000
0.157229 0.036585 0.000042 0.000610 0.900000 0.000611
0.262048 0.036585 0.000631 0.000339 0.900000 0.000716
0.366867 0.036585 0.001842 0.000155 0.900000 0.001848
0.471687 0.036585 0.003088 0.000052 0.900000 0.003089
0.576506 0.036585 0.004425 -0.000072 0.900000 0.004426
0.681325 0.036585 0.005427 -0.000147 0.900000 0.005429
0.786145 0.036585 0.005928 -0.000168 0.900000 0.005931
0.890964 0.036585 0.006405 -0.000116 0.900000 0.006406
0.995783 0.036585 0.006727 -0.000041 0.900000 0.006727
1.100602 0.036585 0.006828 -0.000020 0.900000 0.006828
1.205422 0.036585 0.006871 -0.000115 0.900000 0.006872
1.310241 0.036585 0.007020 -0.000236 0.900000 0.007024
1.415060 0.036585 0.007235 -0.000308 0.900000 0.007242
1.519880 0.036585 0.007414 -0.000300 0.900000 0.007420
1.624699 0.036585 0.007414 -0.000189 0.900000 0.007416
1.729518 0.036585 0.007073 -0.000036 0.900000 0.007073
1.834337 0.036585 0.006529 -0.000035 0.900000 0.006529
1.939157 0.036585 0.006183 -0.000214 0.900000 0.006187
2.043976 0.036585 0.006227 -0.000398 0.900000 0.006240
2.148795 0.036585 0.006508 -0.000466 0.900000 0.006525
2.253614 0.036585 0.006740 -0.000384 0.900000 0.006751
2.358434 0.036585 0.006627 -0.000154 0.900000 0.006629
2.463253 0.036585 0.005940 0.000146 0.900000 0.005942
2.568072 0.036585 0.004970 0.000163 0.900000 0.004973
2.672892 0.036585 0.004469 -0.000130 0.900000 0.004471
2.777711 0.036585 0.004735 -0.000417 0.900000 0.004754
2.882530 0.036585 0.005506 -0.000548 0.900000 0.005533
2.987349 0.036585 0.006306 -0.000440 0.900000 0.006322
3.092169 0.036585 0.006584 -0.000096 0.900000 0.006584
3.196988 0.036585 0.005929 0.000322 0.900000 0.005938
3.301807 0.036585 0.004720 0.000337 0.900000 0.004732
3.406627 0.036585 0.004020 -0.000081 0.900000 0.004020
3.511446 0.036585 0.004261 -0.000471 0.900000 0.004287
3.616265 0.036585 0.005025 -0.000619 0.900000 0.005063
3.721084 0.036585 0.005692 -0.000473 0.900000 0.005711
3.825904 0.036585 0.005664 -0.000052 0.900000 0.005664
3.930723 0.036585 0.004521 0.000448 0.900000 0.004543
4.035542 0.036585 0.002733 0.000474 0.900000 0.002774
4.140361 0.036585 0.001545 -0.000017 0.900000 0.001545
4.245181 0.036585 0.001491 -0.000483 0.900000 0.001567
4.350000 0.036585 0.002150 -0.000677 0.900000 0.002254
4.454819 0.036585 0.002838 -0.000530 0.900000 0.002887
4.559639 0.036585 0.002841 -0.000097 0.900000 0.002843
4.664458 0.036585 0.001655 0.000391 0.900000 0.001700
4.769277 0.036585 -0.000287 0.000391 0.900000 0.000485
4.874096 0.036585 -0.001752 -0.000091 0.900000 0.001755
4.978916 0.036585 -0.002200 -0.000503 0.900000 0.002257
5.083735 0.036585 -0.002027 -0.000621 0.900000 0.002120
5.188554 0.036585 -0.001833 -0.000445 0.900000 0.001887
5.293373 0.036585 -0.002125 -0.000070 0.900000 0.002126
5.398193 0.036585 -0.003187 0.000301 0.900000 0.003201
5.503012 0.036585 -0.004617 0.000291 0.900000 0.004627
5.607831 0.036585 -0.005477 -0.000066 0.900000 0.005478
5.712651 0.036585 -0.005423 -0.000352 0.900000 0.005434
5.817470 0.036585 -0.004844 -0.000423 0.900000 0.004862
5.922289 0.036585 -0.004232 -0.000304 0.900000 0.004243
6.027108 0.036585 -0.004001 -0.000030 0.900000 0.004002
6.131928 0.036585 -0.004442 0.000259 0.900000 0.004450
6.236747 0.036585 -0.005327 0.000257 0.900000 0.005333
6.341566 0.036585 -0.005966 -0.000011 0.900000 0.005966
6.446386 0.036585 -0.006096 -0.000221 0.900000 0.006100
6.551205 0.036585 -0.005974 -0.000275 0.900000 0.005981
6.656024 0.036585 -0.005911 -0.000178 0.900000 0.005914
6.760843 0.036585 -0.006203 0.000031 0.900000 0.006203
6.865663 0.036585 -0.007028 0.000235 0.900000 0.007032
6.970482 0.036585 -0.008166 0.000230 0.900000 0.008169
7.075301 0.036585 -0.009138 0.000052 0.900000 0.009139
7.180120 0.036585 -0.009792 -0.000079 0.900000 0.009792
7.284940 0.036585 -0.010346 -0.000083 0.900000 0.010346
7.389759 0.036585 -0.010993 -0.000014 0.900000 0.010993
7.494578 0.036585 -0.011810 0.000097 0.900000 0.011810
7.599398 0.036585 -0.012754 0.000193 0.900000 0.012755
7.704217 0.036585 -0.013593 0.000179 0.900000 0.013594
7.809036 0.036585 -0.014049 0.000062 0.900000 0.014049
7.913855 0.036585 -0.013991 -0.000040 0.900000 0.013991
8.018675 0.036585 -0.013537 -0.000010 0.900000 0.013537
8.123494 0.036585 -0.012207 -0.000033 0.900000 0.012207
8.228313 0.036585 -0.009823 -0.000055 0.900000 0.009823
8.333133 0.036585 -0.006836 0.000006 0.900000 0.006836
8.437952 0.036585 -0.003623 0.000177 0.900000 0.003627
8.542771 0.036585 -0.001025 0.000470 0.900000 0.001128
8.647590 0.036585 0.000000 0.000000 0.000000 0.000000
0.052410 0.051220 0.000000 0.000000 0.000000 0.000000
0.157229 0.051220 -0.000016 0.001031 0.900000 0.001031
0.262048 0.051220 0.000520 0.000562 0.900000 0.000766
0.366867 0.051220 0.001748 0.000254 0.900000 0.001766
0.471687 0.051220 0.003018 0.000079 0.900000 0.003020
0.576506 0.051220 0.004211 -0.000157 0.900000 0.004214
0.681325 0.051220 0.005116 -0.000148 0.900000 0.005119
0.786145 0.051220 0.005717 -0.000223 0.900000 0.005722
0.890964 0.051220 0.006240 -0.000194 0.900000 0.006243
0.995783 0.051220 0.006570 -0.000107 0.900000 0.006571
1.100602 0.051220 0.006676 -0.000076 0.900000 0.006677
1.205422 0.051220 0.006727 -0.000198 0.900000 0.006730
1.310241 0.051220 0.006890 -0.000354 0.900000 0.006899
1.415060 0.051220 0.007120 -0.000448 0.900000 0.007134
1.519880 0.051220 0.007312 -0.000443 0.900000 0.007325
1.624699 0.051220 0.007321 -0.000306 0.900000 0.007327
1.729518 0.051220 0.006982 -0.000113 0.900000 0.006983
1.834337 0.051220 0.006434 -0.000121 0.900000 0.006435
1.939157 0.051220 0.006092 -0.000363 0.900000 0.006103
2.043976 0.051220 0.006148 -0.000598 0.900000 0.006177
2.148795 0.051220 0.006447 -0.000675 0.900000 0.006482
2.253614 0.051220 0.006694 -0.000555 0.900000 0.006717
2.358434 0.051220 0.006592 -0.000241 0.900000 0.006596
2.463253 0.051220 0.005900 0.000173 0.900000 0.005903
2.568072 0.051220 0.004912 0.000191 0.900000 0.004916
2.672892 0.051220 0.004403 -0.000213 0.900000 0.004408
2.777711 0.051220 0.004679 -0.000591 0.900000 0.004716
2.882530 0.051220 0.005469 -0.000755 0.900000 0.005520
2.987349 0.051220 0.006290 -0.000602 0.900000 0.006319
3.092169 0.051220 0.006578 -0.000131 0.900000 0.006580
3.196988 0.051220 0.005910 0.000450 0.900000 0.005927
3.301807 0.051220 0.004671 0.000464 0.900000 0.004694
3.406627 0.051220 0.003958 -0.000118 0.900000 0.003960
3.511446 0.051220 0.004215 -0.000640 0.900000 0.004263
3.616265 0.051220 0.005005 -0.000826 0.900000 0.005073
3.721084 0.051220 0.005696 -0.000621 0.900000 0.005729
3.825904 0.051220 0.005677 -0.000051 0.900000 0.005677
3.930723 0.051220 0.004518 0.000638 0.900000 0.004562
4.035542 0.051220 0.002698 0.000671 0.900000 0.002780
4.140361 0.051220 0.001499 -0.000004 0.900000 0.001499
4.245181 0.051220 0.001461 -0.000624 0.900000 0.001589
4.350000 0.051220 0.002149 -0.000880 0.900000 0.002323
4.454819 0.051220 0.002863 -0.000698 0.900000 0.002947
4.559639 0.051220 0.002874 -0.000132 0.900000 0.002877
4.664458 0.051220 0.001671 0.000536 0.900000 0.001754
4.769277 0.051220 -0.000300 0.000544 0.900000 0.000621
4.874096 0.051220 -0.001771 -0.000114 0.900000 0.001774
4.978916 0.051220 -0.002196 -0.000672 0.900000 0.002296
5.083735 0.051220 -0.001993 -0.000833 0.900000 0.002160
5.188554 0.051220 -0.001777 -0.000608 0.900000 0.001878
5.293373 0.051220 -0.002065 -0.000113 0.900000 0.002068
5.398193 0.051220 -0.003142 0.000399 0.900000 0.003167
5.503012 0.051220 -0.004594 0.000391 0.900000 0.004611
5.607831 0.051220 -0.005456 -0.000096 0.900000 0.005456
5.712651 0.051220 -0.005382 -0.000475 0.900000 0.005403
5.817470 0.051220 -0.004785 -0.000566 0.900000 0.004818
5.922289 0.051220 -0.004162 -0.000411 0.900000 0.004183
6.027108 0.051220 -0.003927 -0.000048 0.900000 0.003928
6.131928 0.051220 -0.004377 0.000354 0.900000 0.004391
6.236747 0.051220 -0.005278 0.000360 0.900000 0.005290
6.341566 0.051220 -0.005918 -0.000004 0.900000 0.005918
6.446386 0.051220 -0.006034 -0.000282 0.900000 0.006041
6.551205 0.051220 -0.005897 -0.000353 0.900000 0.005908
6.656024 0.051220 -0.005823 -0.000227 0.900000 0.005827
6.760843 0.051220 -0.006108 0.000051 0.900000 0.006108
6.865663 0.051220 -0.006935 0.000336 0.900000 0.006943
6.970482 0.051220 -0.008079 0.000335 0.900000 0.008086
7.075301 0.051220 -0.009046 0.000092 0.900000 0.009047
7.180120 0.051220 -0.009682 -0.000084 0.900000 0.009682
7.284940 0.051220 -0.010217 -0.000081 0.900000 0.010218
7.389759 0.051220 -0.010849 0.000010 0.900000 0.010849
7.494578 0.051220 -0.011651 0.000154 0.900000 0.011652
7.599398 0.051220 -0.012586 0.000282 0.900000 0.012589
7.704217 0.051220 -0.013423 0.000265 0.900000 0.013426
7.809036 0.051220 -0.013884 0.000112 0.900000 0.013884
7.913855 0.051220 -0.013821 0.000007 0.900000 0.013821
8.018675 0.051220 -0.013255 0.000065 0.900000 0.013256
8.123494 0.051220 -0.011954 -0.000102 0.900000 0.011955
8.228313 0.051220 -0.009710 -0.000091 0.900000 0.009711
8.333133 0.051220 -0.006732 0.000007 0.900000 0.006732
8.437952 0.051220 -0.003517 0.000291 0.900000 0.003529
8.542771 0.051220 -0.000972 0.000794 0.900000 0.001255
8.647590 0.051220 0.000000 0.000000 0.000000 0.000000
0.052410 0.065854 0.000000 0.000000 0.000000 0.000000
0.157229 0.065854 -0.000089 0.001468 0.900000 0.001471
0.262048 0.065854 0.000383 0.000781 0.900000 0.000870
0.366867 0.065854 0.001634 0.000349 0.900000 0.001671
0.471687 0.065854 0.002917 0.000106 0.900000 0.002919
0.576506 0.065854 0.003999 -0.000202 0.900000 0.004004
0.681325 0.065854 0.004828 -0.000165 0.900000 0.004831
0.786145 0.065854 0.005500 -0.000292 0.900000 0.005508
0.890964 0.065854 0.006066 -0.000276 0.900000 0.006072
0.995783 0.065854 0.006412 -0.000177 0.900000 0.006414
1.100602 0.065854 0.006529 -0.000132 0.900000 0.006531
1.205422 0.065854 0.006591 -0.000281 0.900000 0.006597
1.310241 0.065854 0.006766 -0.000473 0.900000 0.006782
1.415060 0.065854 0.007003 -0.000588 0.900000 0.007028
1.519880 0.065854 0.007201 -0.000587 0.900000 0.007225
1.624699 0.065854 0.007217 -0.000425 0.900000 0.007229
1.729518 0.065854 0.006884 -0.000190 0.900000 0.006887
1.834337 0.065854 0.006343 -0.000208 0.900000 0.006347
1.939157 0.065854 0.006011 -0.000515 0.900000 0.006033
2.043976 0.065854 0.006081 -0.000802 0.900000 0.006134
2.148795 0.065854 0.006389 -0.000887 0.900000 0.006450
2.253614 0.065854 0.006641 -0.000728 0.900000 0.006681
2.358434 0.065854 0.006548 -0.000332 0.900000 0.006556
2.463253 0.065854 0.005856 0.000201 0.900000 0.005859
2.568072 0.065854 0.004857 0.000220 0.900000 0.004862
2.672892 0.065854 0.004350 -0.000298 0.900000 0.004360
2.777711 0.065854 0.004637 -0.000767 0.900000 0.004700
2.882530 0.065854 0.005434 -0.000964 0.900000 0.005519
2.987349 0.065854 0.006263 -0.000766 0.900000 0.006310
3.092169 0.065854 0.006562 -0.000167 0.900000 0.006564
3.196988 0.065854 0.005886 0.000581 0.900000 0.005915
3.301807 0.065854 0.004623 0.000594 0.900000 0.004661
3.406627 0.065854 0.003911 -0.000159 0.900000 0.003914
3.511446 0.065854 0.004187 -0.000812 0.900000 0.004265
3.616265 0.065854 0.004989 -0.001036 0.900000 0.005095
3.721084 0.065854 0.005686 -0.000771 0.900000 0.005738
3.825904 0.065854 0.005676 -0.000050 0.900000 0.005676
3.930723 0.065854 0.004511 0.000833 0.900000 0.004587
4.035542 0.065854 0.002667 0.000872 0.900000 0.002806
4.140361 0.065854 0.001469 0.000006 0.900000 0.001469
4.245181 0.065854 0.001450 -0.000767 0.900000 0.001641
4.350000 0.065854 0.002146 -0.001086 0.900000 0.002405
4.454819 0.065854 0.002865 -0.000869 0.900000 0.002993
4.559639 0.065854 0.002888 -0.000168 0.900000 0.002892
4.664458 0.065854 0.001683 0.000684 0.900000 0.001817
4.769277 0.065854 -0.000305 0.000700 0.900000 0.000764
4.874096 0.065854 -0.001773 -0.000141 0.900000 0.001778
4.978916 0.065854 -0.002176 -0.000844 0.900000 0.002335
5.083735 0.065854 -0.001962 -0.001048 0.900000 0.002224
5.188554 0.065854 -0.001739 -0.000772 0.900000 0.001903
5.293373 0.065854 -0.002018 -0.000157 0.900000 0.002024
5.398193 0.065854 -0.003098 0.000498 0.900000 0.003138
5.503012 0.065854 -0.004565 0.000493 0.900000 0.004592
5.607831 0.065854 -0.005421 -0.000129 0.900000 0.005423
5.712651 0.065854 -0.005329 -0.000602 0.900000 0.005363
5.817470 0.065854 -0.004725 -0.000709 0.900000 0.004778
5.922289 0.065854 -0.004102 -0.000519 0.900000 0.004135
6.027108 0.065854 -0.003862 -0.000067 0.900000 0.003863
6.131928 0.065854 -0.004313 0.000451 0.900000 0.004337
6.236747 0.065854 -0.005224 0.000465 0.900000 0.005245
6.341566 0.065854 -0.005860 0.000001 0.900000 0.005860
6.446386 0.065854 -0.005962 -0.000344 0.900000 0.005972
6.551205 0.065854 -0.005819 -0.000431 0.900000 0.005835
6.656024 0.065854 -0.005740 -0.000277 0.900000 0.005747
6.760843 0.065854 -0.006018 0.000072 0.900000 0.006018
6.865663 0.065854 -0.006843 0.000438 0.900000 0.006857
6.970482 0.065854 -0.007990 0.000440 0.900000 0.008002
7.075301 0.065854 -0.008950 0.000129 0.900000 0.008950
7.180120 0.065854 -0.009566 -0.000091 0.900000 0.009567
7.284940 0.065854 -0.010087 -0.000079 0.900000 0.010087
7.389759 0.065854 -0.010709 0.000034 0.900000 0.010709
7.494578 0.065854 -0.011497 0.000210 0.900000 0.011499
7.599398 0.065854 -0.012422 0.000372 0.900000 0.012427
7.704217 0.065854 -0.013256 0.000351 0.900000 0.013260
7.809036 0.065854 -0.013718 0.000162 0.900000 0.013719
7.913855 0.065854 -0.013645 0.000049 0.900000 0.013645
8.018675 0.065854 -0.012997 0.000110 0.900000 0.012997
8.123494 0.065854 -0.011716 -0.000140 0.900000 0.011716
8.228313 0.065854 -0.009577 -0.000126 0.900000 0.009578
8.333133 0.065854 -0.006610 0.000004 0.900000 0.006610
8.437952 0.065854 -0.003385 0.000400 0.900000 0.003409
8.542771 0.065854 -0.000902 0.001132 0.900000 0.001447
8.647590 0.065854 0.000000 0.000000 0.000000 0.000000
0.052410 0.080488 0.000000 0.000000 0.000000 0.000000
0.157229 0.080488 -0.000181 0.001926 0.900000 0.001935
0.262048 0.080488 0.000214 0.000996 0.900000 0.001018
0.366867 0.080488 0.001495 0.000440 0.900000 0.001559
0.471687 0.080488 0.002783 0.000135 0.900000 0.002787
0.576506 0.080488 0.003779 -0.000217 0.900000 0.003785
0.681325 0.080488 0.004547 -0.000192 0.900000 0.004551
0.786145 0.080488 0.005270 -0.000373 0.900000 0.005283
0.890964 0.080488 0.005875 -0.000362 0.900000 0.005886
0.995783 0.080488 0.006240 -0.000251 0.900000 0.006245
1.100602 0.080488 0.006378 -0.000190 0.900000 0.006381
1.205422 0.080488 0.006453 -0.000365 0.900000 0.006463
1.310241 0.080488 0.006637 -0.000591 0.900000 0.006663
1.415060 0.080488 0.006876 -0.000727 0.900000 0.006915
1.519880 0.080488 0.007073 -0.000730 0.900000 0.007110
1.624699 0.080488 0.007092 -0.000544 0.900000 0.007113
1.729518 0.080488 0.006771 -0.000270 0.900000 0.006777
1.834337 0.080488 0.006248 -0.000300 0.900000 0.006255
1.939157 0.080488 0.005935 -0.000670 0.900000 0.005973
2.043976 0.080488 0.006017 -0.001009 0.900000 0.006101
2.148795 0.080488 0.006328 -0.001101 0.900000 0.006423
2.253614 0.080488 0.006577 -0.000902 0.900000 0.006638
2.358434 0.080488 0.006488 -0.000425 0.900000 0.006502
2.463253 0.080488 0.005801 0.000230 0.900000 0.005806
2.568072 0.080488 0.004801 0.000249 0.900000 0.004808
2.672892 0.080488 0.004305 -0.000385 0.900000 0.004322
2.777711 0.080488 0.004603 -0.000943 0.900000 0.004698
2.882530 0.080488 0.005398 -0.001174 0.900000 0.005524
2.987349 0.080488 0.006223 -0.000930 0.900000 0.006292
3.092169 0.080488 0.006528 -0.000206 0.900000 0.006531
3.196988 0.080488 0.005851 0.000717 0.900000 0.005895
3.301807 0.080488 0.004576 0.000726 0.900000 0.004633
3.406627 0.080488 0.003876 -0.000203 0.900000 0.003881
3.511446 0.080488 0.004171 -0.000986 0.900000 0.004286
3.616265 0.080488 0.004973 -0.001245 0.900000 0.005126
3.721084 0.080488 0.005661 -0.000920 0.900000 0.005735
3.825904 0.080488 0.005655 -0.000052 0.900000 0.005655
3.930723 0.080488 0.004492 0.001029 0.900000 0.004608
4.035542 0.080488 0.002643 0.001075 0.900000 0.002853
4.140361 0.080488 0.001460 0.000013 0.900000 0.001460
4.245181 0.080488 0.001456 -0.000911 0.900000 0.001718
4.350000 0.080488 0.002143 -0.001290 0.900000 0.002501
4.454819 0.080488 0.002847 -0.001038 0.900000 0.003031
4.559639 0.080488 0.002877 -0.000207 0.900000 0.002885
4.664458 0.080488 0.001686 0.000833 0.900000 0.001880
4.769277 0.080488 -0.000301 0.000857 0.900000 0.000909
4.874096 0.080488 -0.001754 -0.000170 0.900000 0.001762
4.978916 0.080488 -0.002140 -0.001018 0.900000 0.002370
5.083735 0.080488 -0.001928 -0.001263 0.900000 0.002305
5.188554 0.080488 -0.001712 -0.000936 0.900000 0.001951
5.293373 0.080488 -0.001984 -0.000201 0.900000 0.001994
5.398193 0.080488 -0.003058 0.000599 0.900000 0.003116
5.503012 0.080488 -0.004525 0.000595 0.900000 0.004564
5.607831 0.080488 -0.005367 -0.000165 0.900000 0.005369
5.712651 0.080488 -0.005258 -0.000729 0.900000 0.005308
5.817470 0.080488 -0.004657 -0.000851 0.900000 0.004734
5.922289 0.080488 -0.004046 -0.000627 0.900000 0.004094
6.027108 0.080488 -0.003803 -0.000088 0.900000 0.003804
6.131928 0.080488 -0.004249 0.000548 0.900000 0.004284
6.236747 0.080488 -0.005159 0.000570 0.900000 0.005190
6.341566 0.080488 -0.005783 0.000004 0.900000 0.005783
6.446386 0.080488 -0.005873 -0.000407 0.900000 0.005888
6.551205 0.080488 -0.005731 -0.000509 0.900000 0.005754
6.656024 0.080488 -0.005655 -0.000326 0.900000 0.005665
6.760843 0.080488 -0.005928 0.000091 0.900000 0.005929
6.865663 0.080488 -0.006747 0.000541 0.900000 0.006769
6.970482 0.080488 -0.007890 0.000546 0.900000 0.007909
7.075301 0.080488 -0.008837 0.000166 0.900000 0.008838
7.180120 0.080488 -0.009433 -0.000101 0.900000 0.009434
7.284940 0.080488 -0.009943 -0.000077 0.900000 0.009943
7.389759 0.080488 -0.010561 0.000057 0.900000 0.010561
7.494578 0.080488 -0.011338 0.000264 0.900000 0.011341
7.599398 0.080488 -0.012249 0.000460 0.900000 0.012258
7.704217 0.080488 -0.013075 0.000437 0.900000 0.013082
7.809036 0.080488 -0.013537 0.000213 0.900000 0.013539
7.913855 0.080488 -0.013454 0.000087 0.900000 0.013455
8.018675 0.080488 -0.012745 0.000134 0.900000 0.012746
8.123494 0.080488 -0.011479 -0.000156 0.900000 0.011480
8.228313 0.080488 -0.009421 -0.000158 0.900000 0.009423
8.333133 0.080488 -0.006467 -0.000004 0.900000 0.006467
8.437952 0.080488 -0.003222 0.000501 0.900000 0.003260
8.542771 0.080488 -0.000813 0.001487 0.900000 0.001695
8.647590 0.080488 0.000000 0.000000 0.000000 0.000000
0.052410 0.095122 0.000000 0.000000 0.000000 0.000000
0.157229 0.095122 -0.000292 0.002410 0.900000 0.002427
0.262048 0.095122 0.000016 0.001202 0.900000 0.001203
0.366867 0.095122 0.001337 0.000527 0.900000 0.001438
0.471687 0.095122 0.002630 0.000170 0.900000 0.002636
0.576506 0.095122 0.003557 -0.000210 0.900000 0.003563
0.681325 0.095122 0.004276 -0.000224 0.900000 0.004281
0.786145 0.095122 0.005035 -0.000466 0.900000 0.005057
0.890964 0.095122 0.005677 -0.000453 0.900000 0.005695
0.995783 0.095122 0.006066 -0.000333 0.900000 0.006076
1.100602 0.095122 0.006232 -0.000252 0.900000 0.006237
1.205422 0.095122 0.006323 -0.000449 0.900000 0.006339
1.310241 0.095122 0.006514 -0.000707 0.900000 0.006552
1.415060 0.095122 0.006748 -0.000862 0.900000 0.006803
1.519880 0.095122 0.006935 -0.000871 0.900000 0.006989
1.624699 0.095122 0.006954 -0.000663 0.900000 0.006985
1.729518 0.095122 0.006649 -0.000353 0.900000 0.006658
1.834337 0.095122 0.006156 -0.000397 0.900000 0.006169
1.939157 0.095122 0.005870 -0.000831 0.900000 0.005929
2.043976 0.095122 0.005963 -0.001219 0.900000 0.006086
2.148795 0.095122 0.006269 -0.001315 0.900000 0.006406
2.253614 0.095122 0.006505 -0.001077 0.900000 0.006594
2.358434 0.095122 0.006417 -0.000523 0.900000 0.006438
2.463253 0.095122 0.005740 0.000257 0.900000 0.005746
2.568072 0.095122 0.004752 0.000277 0.900000 0.004760
2.672892 0.095122 0.004276 -0.000474 0.900000 0.004302
2.777711 0.095122 0.004582 -0.001118 0.900000 0.004717
2.882530 0.095122 0.005365 -0.001381 0.900000 0.005540
2.987349 0.095122 0.006172 -0.001093 0.900000 0.006268
3.092169 0.095122 0.006479 -0.000245 0.900000 0.006483
3.196988 0.095122 0.005807 0.000854 0.900000 0.005869
3.301807 0.095122 0.004534 0.000859 0.900000 0.004614
3.406627 0.095122 0.003858 -0.000252 0.900000 0.003866
3.511446 0.095122 0.004172 -0.001160 0.900000 0.004330
3.616265 0.095122 0.004960 -0.001451 0.900000 0.005168
3.721084 0.095122 0.005623 -0.001067 0.900000 0.005724
3.825904 0.095122 0.005613 -0.000054 0.900000 0.005613
3.930723 0.095122 0.004462 0.001227 0.900000 0.004627
4.035542 0.095122 0.002626 0.001276 0.900000 0.002920
4.140361 0.095122 0.001473 0.000016 0.900000 0.001473
4.245181 0.095122 0.001481 -0.001053 0.900000 0.001817
4.350000 0.095122 0.002139 -0.001488 0.900000 0.002606
4.454819 0.095122 0.002810 -0.001205 0.900000 0.003057
4.559639 0.095122 0.002841 -0.000249 0.900000 0.002852
4.664458 0.095122 0.001676 0.000981 0.900000 0.001941
4.769277 0.095122 -0.000288 0.001013 0.900000 0.001053
4.874096 0.095122 -0.001713 -0.000203 0.900000 0.001725