TITLE="(Vx,Vy)"
VARIABLES=X,Y,Vx,Vy,Vm,V
ZONE T="T-Dummy" I=83, J=41, F=POINT
0.052410 0.007317 0.000000 0.000000 0.000000 0.000000
0.157229 0.007317 0.000000 0.000000 0.000000 0.000000
0.262048 0.007317 0.000000 0.000000 0.000000 0.000000
0.366867 0.007317 0.000000 0.000000 0.000000 0.000000
0.471687 0.007317 0.000000 0.000000 0.000000 0.000000
0.576506 0.007317 0.000000 0.000000 0.000000 0.000000
0.681325 0.007317 0.000000 0.000000 0.000000 0.000000
0.786145 0.007317 0.000000 0.000000 0.000000 0.000000
0.890964 0.007317 0.000000 0.000000 0.000000 0.000000
0.995783 0.007317 0.000000 0.000000 0.000000 0.000000
1.100602 0.007317 0.000000 0.000000 0.000000 0.000000
1.205422 0.007317 0.000000 0.000000 0.000000 0.000000
1.310241 0.007317 0.000000 0.000000 0.000000 0.000000
1.415060 0.007317 0.000000 0.000000 0.000000 0.000000
1.519880 0.007317 0.000000 0.000000 0.000000 0.000000
1.624699 0.007317 0.000000 0.000000 0.000000 0.000000
1.729518 0.007317 0.000000 0.000000 0.000000 0.000000
1.834337 0.007317 0.000000 0.000000 0.000000 0.000000
1.939157 0.007317 0.000000 0.000000 0.000000 0.000000
2.043976 0.007317 0.000000 0.000000 0.000000 0.000000
2.148795 0.007317 0.000000 0.000000 0.000000 0.000000
2.253614 0.007317 0.000000 0.000000 0.000000 0.000000
2.358434 0.007317 0.000000 0.000000 0.000000 0.000000
2.463253 0.007317 0.000000 0.000000 0.000000 0.000000
2.568072 0.007317 0.000000 0.000000 0.000000 0.000000
2.672892 0.007317 0.000000 0.000000 0.000000 0.000000
2.777711 0.007317 0.000000 0.000000 0.000000 0.000000
2.882530 0.007317 0.000000 0.000000 0.000000 0.000000
2.987349 0.007317 0.000000 0.000000 0.000000 0.000000
3.092169 0.007317 0.000000 0.000000 0.000000 0.000000
3.196988 0.007317 0.000000 0.000000 0.000000 0.000000
3.301807 0.007317 0.000000 0.000000 0.000000 0.000000
3.406627 0.007317 0.000000 0.000000 0.000000 0.000000
3.511446 0.007317 0.000000 0.000000 0.000000 0.000000
3.616265 0.007317 0.000000 0.000000 0.000000 0.000000
3.721084 0.007317 0.000000 0.000000 0.000000 0.000000
3.825904 0.007317 0.000000 0.000000 0.000000 0.000000
3.930723 0.007317 0.000000 0.000000 0.000000 0.000000
4.035542 0.007317 0.000000 0.000000 0.000000 0.000000
4.140361 0.007317 0.000000 0.000000 0.000000 0.000000
4.245181 0.007317 0.000000 0.000000 0.000000 0.000000
4.350000 0.007317 0.000000 0.000000 0.000000 0.000000
4.454819 0.007317 0.000000 0.000000 0.000000 0.000000
4.559639 0.007317 0.000000 0.000000 0.000000 0.000000
4.664458 0.007317 0.000000 0.000000 0.000000 0.000000
4.769277 0.007317 0.000000 0.000000 0.000000 0.000000
4.874096 0.007317 0.000000 0.000000 0.000000 0.000000
4.978916 0.007317 0.000000 0.000000 0.000000 0.000000
5.083735 0.007317 0.000000 0.000000 0.000000 0.000000
5.188554 0.007317 0.000000 0.000000 0.000000 0.000000
5.293373 0.007317 0.000000 0.000000 0.000000 0.000000
5.398193 0.007317 0.000000 0.000000 0.000000 0.000000
5.503012 0.007317 0.000000 0.000000 0.000000 0.000000
5.607831 0.007317 0.000000 0.000000 0.000000 0.000000
5.712651 0.007317 0.000000 0.000000 0.000000 0.000000
5.817470 0.007317 0.000000 0.000000 0.000000 0.000000
5.922289 0.007317 0.000000 0.000000 0.000000 0.000000
6.027108 0.007317 0.000000 0.000000 0.000000 0.000000
6.131928 0.007317 0.000000 0.000000 0.000000 0.000000
6.236747 0.007317 0.000000 0.000000 0.000000 0.000000
6.341566 0.007317 0.000000 0.000000 0.000000 0.000000
6.446386 0.007317 0.000000 0.000000 0.000000 0.000000
6.551205 0.007317 0.000000 0.000000 0.000000 0.000000
6.656024 0.007317 0.000000 0.000000 0.000000 0.000000
6.760843 0.007317 0.000000 0.000000 0.000000 0.000000
6.865663 0.007317 0.000000 0.000000 0.000000 0.000000
6.970482 0.007317 0.000000 0.000000 0.000000 0.000000
7.075301 0.007317 0.000000 0.000000 0.000000 0.000000
7.180120 0.007317 0.000000 0.000000 0.000000 0.000000
7.284940 0.007317 0.000000 0.000000 0.000000 0.000000
7.389759 0.007317 0.000000 0.000000 0.000000 0.000000
7.494578 0.007317 0.000000 0.000000 0.000000 0.000000
7.599398 0.007317 0.000000 0.000000 0.000000 0.000000
7.704217 0.007317 0.000000 0.000000 0.000000 0.000000
7.809036 0.007317 0.000000 0.000000 0.000000 0.000000
7.913855 0.007317 0.000000 0.000000 0.000000 0.000000
8.018675 0.007317 0.000000 0.000000 0.000000 0.000000
8.123494 0.007317 0.000000 0.000000 0.000000 0.000000
8.228313 0.007317 0.000000 0.000000 0.000000 0.000000
8.333133 0.007317 0.000000 0.000000 0.000000 0.000000
8.437952 0.007317 0.000000 0.000000 0.000000 0.000000
8.542771 0.007317 0.000000 0.000000 0.000000 0.000000
8.647590 0.007317 0.000000 0.000000 0.000000 0.000000
0.052410 0.021951 0.000000 0.000000 0.000000 0.000000
0.157229 0.021951 -0.003473 0.000545 0.900000 0.003515
0.262048 0.021951 -0.010604 0.000514 0.900000 0.010617
0.366867 0.021951 -0.017165 0.000482 0.900000 0.017172
0.471687 0.021951 -0.022033 0.000469 0.900000 0.022038
0.576506 0.021951 -0.025148 0.000470 0.900000 0.025153
0.681325 0.021951 -0.026883 0.000470 0.900000 0.026887
0.786145 0.021951 -0.027512 0.000477 0.900000 0.027516
0.890964 0.021951 -0.027252 0.000493 0.900000 0.027257
0.995783 0.021951 -0.026669 0.000520 0.900000 0.026674
1.100602 0.021951 -0.026088 0.000544 0.900000 0.026094
1.205422 0.021951 -0.025400 0.000548 0.900000 0.025405
1.310241 0.021951 -0.024442 0.000531 0.900000 0.024448
1.415060 0.021951 -0.023260 0.000531 0.900000 0.023266
1.519880 0.021951 -0.022006 0.000527 0.900000 0.022012
1.624699 0.021951 -0.020726 0.000519 0.900000 0.020732
1.729518 0.021951 -0.019435 0.000504 0.900000 0.019442
1.834337 0.021951 -0.018165 0.000494 0.900000 0.018172
1.939157 0.021951 -0.016935 0.000482 0.900000 0.016942
2.043976 0.021951 -0.015708 0.000463 0.900000 0.015715
2.148795 0.021951 -0.014424 0.000429 0.900000 0.014430
2.253614 0.021951 -0.013046 0.000391 0.900000 0.013052
2.358434 0.021951 -0.011716 0.000366 0.900000 0.011722
2.463253 0.021951 -0.010511 0.000328 0.900000 0.010516
2.568072 0.021951 -0.009420 0.000299 0.900000 0.009424
2.672892 0.021951 -0.008494 0.000277 0.900000 0.008499
2.777711 0.021951 -0.007706 0.000252 0.900000 0.007711
2.882530 0.021951 -0.007012 0.000224 0.900000 0.007016
2.987349 0.021951 -0.006340 0.000191 0.900000 0.006342
3.092169 0.021951 -0.005625 0.000155 0.900000 0.005627
3.196988 0.021951 -0.004903 0.000126 0.900000 0.004904
3.301807 0.021951 -0.004179 0.000109 0.900000 0.004180
3.406627 0.021951 -0.003349 0.000092 0.900000 0.003350
3.511446 0.021951 -0.002311 0.000078 0.900000 0.002312
3.616265 0.021951 -0.001105 0.000070 0.900000 0.001107
3.721084 0.021951 0.000154 0.000061 0.900000 0.000166
3.825904 0.021951 0.001356 0.000049 0.900000 0.001357
3.930723 0.021951 0.002416 0.000032 0.900000 0.002416
4.035542 0.021951 0.003375 0.000014 0.900000 0.003375
4.140361 0.021951 0.004262 0.000004 0.900000 0.004262
4.245181 0.021951 0.005026 0.000003 0.900000 0.005026
4.350000 0.021951 0.005633 0.000004 0.900000 0.005633
4.454819 0.021951 0.006076 0.000011 0.900000 0.006076
4.559639 0.021951 0.006319 0.000015 0.900000 0.006319
4.664458 0.021951 0.006317 0.000018 0.900000 0.006317
4.769277 0.021951 0.006169 0.000020 0.900000 0.006169
4.874096 0.021951 0.006054 0.000021 0.900000 0.006054
4.978916 0.021951 0.006100 0.000020 0.900000 0.006100
5.083735 0.021951 0.006318 0.000019 0.900000 0.006318
5.188554 0.021951 0.006623 0.000018 0.900000 0.006623
5.293373 0.021951 0.006871 0.000014 0.900000 0.006871
5.398193 0.021951 0.006951 0.000007 0.900000 0.006951
5.503012 0.021951 0.006875 -0.000001 0.900000 0.006875
5.607831 0.021951 0.006611 -0.000004 0.900000 0.006611
5.712651 0.021951 0.006130 -0.000006 0.900000 0.006130
5.817470 0.021951 0.005493 -0.000013 0.900000 0.005493
5.922289 0.021951 0.004759 -0.000027 0.900000 0.004759
6.027108 0.021951 0.003949 -0.000045 0.900000 0.003949
6.131928 0.021951 0.003072 -0.000062 0.900000 0.003072
6.236747 0.021951 0.002214 -0.000074 0.900000 0.002215
6.341566 0.021951 0.001464 -0.000081 0.900000 0.001466
6.446386 0.021951 0.000901 -0.000087 0.900000 0.000905
6.551205 0.021951 0.000574 -0.000089 0.900000 0.000581
6.656024 0.021951 0.000458 -0.000093 0.900000 0.000468
6.760843 0.021951 0.000580 -0.000103 0.900000 0.000589
6.865663 0.021951 0.000991 -0.000117 0.900000 0.000998
6.970482 0.021951 0.001676 -0.000124 0.900000 0.001681
7.075301 0.021951 0.002590 -0.000123 0.900000 0.002593
7.180120 0.021951 0.003691 -0.000118 0.900000 0.003693
7.284940 0.021951 0.004952 -0.000115 0.900000 0.004953
7.389759 0.021951 0.006341 -0.000118 0.900000 0.006342
7.494578 0.021951 0.007818 -0.000122 0.900000 0.007819
7.599398 0.021951 0.009257 -0.000122 0.900000 0.009257
7.704217 0.021951 0.010496 -0.000119 0.900000 0.010496
7.809036 0.021951 0.011487 -0.000114 0.900000 0.011487
7.913855 0.021951 0.012159 -0.000107 0.900000 0.012159
8.018675 0.021951 0.012415 -0.000102 0.900000 0.012415
8.123494 0.021951 0.012194 -0.000096 0.900000 0.012195
8.228313 0.021951 0.011310 -0.000081 0.900000 0.011311
8.333133 0.021951 0.009495 -0.000049 0.900000 0.009495
8.437952 0.021951 0.006574 -0.000019 0.900000 0.006574
8.542771 0.021951 0.002411 -0.000005 0.900000 0.002411
8.647590 0.021951 0.000000 0.000000 0.000000 0.000000
0.052410 0.036585 0.000000 0.000000 0.000000 0.000000
0.157229 0.036585 -0.003454 0.001634 0.900000 0.003821
0.262048 0.036585 -0.010559 0.001542 0.900000 0.010671
0.366867 0.036585 -0.017102 0.001447 0.900000 0.017163
0.471687 0.036585 -0.021953 0.001407 0.900000 0.021998
0.576506 0.036585 -0.025059 0.001412 0.900000 0.025099
0.681325 0.036585 -0.026788 0.001412 0.900000 0.026826
0.786145 0.036585 -0.027413 0.001431 0.900000 0.027450
0.890964 0.036585 -0.027155 0.001480 0.900000 0.027195
0.995783 0.036585 -0.026577 0.001562 0.900000 0.026623
1.100602 0.036585 -0.026004 0.001633 0.900000 0.026056
1.205422 0.036585 -0.025325 0.001645 0.900000 0.025378
1.310241 0.036585 -0.024372 0.001591 0.900000 0.024424
1.415060 0.036585 -0.023195 0.001592 0.900000 0.023249
1.519880 0.036585 -0.021952 0.001581 0.900000 0.022008
1.624699 0.036585 -0.020682 0.001556 0.900000 0.020741
1.729518 0.036585 -0.019398 0.001511 0.900000 0.019457
1.834337 0.036585 -0.018130 0.001481 0.900000 0.018190
1.939157 0.036585 -0.016902 0.001446 0.900000 0.016964
2.043976 0.036585 -0.015681 0.001390 0.900000 0.015743
2.148795 0.036585 -0.014408 0.001287 0.900000 0.014465
2.253614 0.036585 -0.013038 0.001170 0.900000 0.013091
2.358434 0.036585 -0.011717 0.001098 0.900000 0.011768
2.463253 0.036585 -0.010516 0.000981 0.900000 0.010562
2.568072 0.036585 -0.009422 0.000896 0.900000 0.009464
2.672892 0.036585 -0.008493 0.000829 0.900000 0.008533
2.777711 0.036585 -0.007706 0.000755 0.900000 0.007743
2.882530 0.036585 -0.007018 0.000669 0.900000 0.007049
2.987349 0.036585 -0.006353 0.000571 0.900000 0.006379
3.092169 0.036585 -0.005645 0.000462 0.900000 0.005663
3.196988 0.036585 -0.004921 0.000374 0.900000 0.004935
3.301807 0.036585 -0.004191 0.000324 0.900000 0.004204
3.406627 0.036585 -0.003357 0.000275 0.900000 0.003369
3.511446 0.036585 -0.002320 0.000230 0.900000 0.002331
3.616265 0.036585 -0.001121 0.000205 0.900000 0.001139
3.721084 0.036585 0.000126 0.000179 0.900000 0.000219
3.825904 0.036585 0.001318 0.000141 0.900000 0.001326
3.930723 0.036585 0.002374 0.000092 0.900000 0.002376
4.035542 0.036585 0.003339 0.000037 0.900000 0.003339
4.140361 0.036585 0.004234 0.000008 0.900000 0.004234
4.245181 0.036585 0.005001 0.000004 0.900000 0.005001
4.350000 0.036585 0.005603 0.000009 0.900000 0.005603
4.454819 0.036585 0.006038 0.000026 0.900000 0.006038
4.559639 0.036585 0.006275 0.000041 0.900000 0.006275
4.664458 0.036585 0.006274 0.000049 0.900000 0.006274
4.769277 0.036585 0.006133 0.000056 0.900000 0.006133
4.874096 0.036585 0.006026 0.000059 0.900000 0.006026
4.978916 0.036585 0.006074 0.000058 0.900000 0.006074
5.083735 0.036585 0.006287 0.000054 0.900000 0.006287
5.188554 0.036585 0.006585 0.000048 0.900000 0.006585
5.293373 0.036585 0.006828 0.000038 0.900000 0.006828
5.398193 0.036585 0.006909 0.000018 0.900000 0.006909
5.503012 0.036585 0.006841 -0.000005 0.900000 0.006841
5.607831 0.036585 0.006587 -0.000014 0.900000 0.006587
5.712651 0.036585 0.006111 -0.000022 0.900000 0.006111
5.817470 0.036585 0.005473 -0.000042 0.900000 0.005473
5.922289 0.036585 0.004737 -0.000085 0.900000 0.004737
6.027108 0.036585 0.003928 -0.000139 0.900000 0.003930
6.131928 0.036585 0.003057 -0.000188 0.900000 0.003063
6.236747 0.036585 0.002210 -0.000223 0.900000 0.002221
6.341566 0.036585 0.001470 -0.000246 0.900000 0.001491
6.446386 0.036585 0.000913 -0.000262 0.900000 0.000950
6.551205 0.036585 0.000586 -0.000269 0.900000 0.000645
6.656024 0.036585 0.000467 -0.000282 0.900000 0.000545
6.760843 0.036585 0.000585 -0.000312 0.900000 0.000663
6.865663 0.036585 0.000995 -0.000352 0.900000 0.001056
6.970482 0.036585 0.001685 -0.000375 0.900000 0.001726
7.075301 0.036585 0.002602 -0.000372 0.900000 0.002628
7.180120 0.036585 0.003701 -0.000356 0.900000 0.003718
7.284940 0.036585 0.004954 -0.000346 0.900000 0.004966
7.389759 0.036585 0.006334 -0.000356 0.900000 0.006344
7.494578 0.036585 0.007804 -0.000369 0.900000 0.007813
7.599398 0.036585 0.009240 -0.000369 0.900000 0.009247
7.704217 0.036585 0.010479 -0.000360 0.900000 0.010485
7.809036 0.036585 0.011470 -0.000343 0.900000 0.011475
7.913855 0.036585 0.012140 -0.000324 0.900000 0.012144
8.018675 0.036585 0.012390 -0.000307 0.900000 0.012394
8.123494 0.036585 0.012168 -0.000291 0.900000 0.012172
8.228313 0.036585 0.011291 -0.000244 0.900000 0.011294
8.333133 0.036585 0.009484 -0.000148 0.900000 0.009485
8.437952 0.036585 0.006566 -0.000058 0.900000 0.006566
8.542771 0.036585 0.002407 -0.000014 0.900000 0.002408
8.647590 0.036585 0.000000 0.000000 0.000000 0.000000
0.052410 0.051220 0.000000 0.000000 0.000000 0.000000
0.157229 0.051220 -0.003438 0.002721 0.900000 0.004385
0.262048 0.051220 -0.010519 0.002571 0.900000 0.010829
0.366867 0.051220 -0.017041 0.002412 0.900000 0.017211
0.471687 0.051220 -0.021869 0.002348 0.900000 0.021995
0.576506 0.051220 -0.024964 0.002357 0.900000 0.025075
0.681325 0.051220 -0.026688 0.002357 0.900000 0.026792
0.786145 0.051220 -0.027306 0.002388 0.900000 0.027410
0.890964 0.051220 -0.027048 0.002470 0.900000 0.027160
0.995783 0.051220 -0.026475 0.002606 0.900000 0.026603
1.100602 0.051220 -0.025914 0.002727 0.900000 0.026057
1.205422 0.051220 -0.025251 0.002746 0.900000 0.025400
1.310241 0.051220 -0.024304 0.002653 0.900000 0.024448
1.415060 0.051220 -0.023129 0.002656 0.900000 0.023281
1.519880 0.051220 -0.021897 0.002638 0.900000 0.022055
1.624699 0.051220 -0.020640 0.002596 0.900000 0.020802
1.729518 0.051220 -0.019363 0.002521 0.900000 0.019526
1.834337 0.051220 -0.018098 0.002472 0.900000 0.018266
1.939157 0.051220 -0.016874 0.002414 0.900000 0.017046
2.043976 0.051220 -0.015664 0.002320 0.900000 0.015835
2.148795 0.051220 -0.014403 0.002146 0.900000 0.014562
2.253614 0.051220 -0.013040 0.001949 0.900000 0.013185
2.358434 0.051220 -0.011727 0.001829 0.900000 0.011869
2.463253 0.051220 -0.010533 0.001634 0.900000 0.010659
2.568072 0.051220 -0.009433 0.001494 0.900000 0.009551
2.672892 0.051220 -0.008501 0.001383 0.900000 0.008613
2.777711 0.051220 -0.007716 0.001259 0.900000 0.007818
2.882530 0.051220 -0.007034 0.001114 0.900000 0.007122
2.987349 0.051220 -0.006378 0.000948 0.900000 0.006448
3.092169 0.051220 -0.005674 0.000765 0.900000 0.005725
3.196988 0.051220 -0.004947 0.000617 0.900000 0.004985
3.301807 0.051220 -0.004211 0.000537 0.900000 0.004245
3.406627 0.051220 -0.003373 0.000454 0.900000 0.003404
3.511446 0.051220 -0.002334 0.000378 0.900000 0.002365
3.616265 0.051220 -0.001140 0.000336 0.900000 0.001189
3.721084 0.051220 0.000096 0.000292 0.900000 0.000307
3.825904 0.051220 0.001276 0.000227 0.900000 0.001296
3.930723 0.051220 0.002327 0.000146 0.900000 0.002332
4.035542 0.051220 0.003296 0.000055 0.900000 0.003296
4.140361 0.051220 0.004201 0.000007 0.900000 0.004201
4.245181 0.051220 0.004974 0.000000 0.900000 0.004974
4.350000 0.051220 0.005574 0.000006 0.900000 0.005574
4.454819 0.051220 0.006003 0.000034 0.900000 0.006003
4.559639 0.051220 0.006234 0.000058 0.900000 0.006234
4.664458 0.051220 0.006233 0.000073 0.900000 0.006233
4.769277 0.051220 0.006097 0.000086 0.900000 0.006097
4.874096 0.051220 0.005996 0.000092 0.900000 0.005997
4.978916 0.051220 0.006047 0.000090 0.900000 0.006048
5.083735 0.051220 0.006257 0.000083 0.900000 0.006257
5.188554 0.051220 0.006548 0.000073 0.900000 0.006548
5.293373 0.051220 0.006786 0.000055 0.900000 0.006786
5.398193 0.051220 0.006867 0.000022 0.900000 0.006867
5.503012 0.051220 0.006806 -0.000015 0.900000 0.006806
5.607831 0.051220 0.006562 -0.000028 0.900000 0.006562
5.712651 0.051220 0.006091 -0.000041 0.900000 0.006091
5.817470 0.051220 0.005452 -0.000075 0.900000 0.005452
5.922289 0.051220 0.004712 -0.000148 0.900000 0.004715
6.027108 0.051220 0.003905 -0.000238 0.900000 0.003912
6.131928 0.051220 0.003041 -0.000319 0.900000 0.003058
6.236747 0.051220 0.002205 -0.000375 0.900000 0.002237
6.341566 0.051220 0.001477 -0.000414 0.900000 0.001534
6.446386 0.051220 0.000927 -0.000441 0.900000 0.001026
6.551205 0.051220 0.000600 -0.000452 0.900000 0.000751
6.656024 0.051220 0.000476 -0.000473 0.900000 0.000672
6.760843 0.051220 0.000590 -0.000525 0.900000 0.000789
6.865663 0.051220 0.001000 -0.000591 0.900000 0.001161
6.970482 0.051220 0.001694 -0.000628 0.900000 0.001807
7.075301 0.051220 0.002616 -0.000622 0.900000 0.002689
7.180120 0.051220 0.003713 -0.000595 0.900000 0.003760
7.284940 0.051220 0.004957 -0.000579 0.900000 0.004991
7.389759 0.051220 0.006327 -0.000596 0.900000 0.006355
7.494578 0.051220 0.007790 -0.000619 0.900000 0.007815
7.599398 0.051220 0.009224 -0.000618 0.900000 0.009245
7.704217 0.051220 0.010464 -0.000603 0.900000 0.010481
7.809036 0.051220 0.011456 -0.000575 0.900000 0.011470
7.913855 0.051220 0.012124 -0.000543 0.900000 0.012136
8.018675 0.051220 0.012369 -0.000514 0.900000 0.012380
8.123494 0.051220 0.012147 -0.000489 0.900000 0.012157
8.228313 0.051220 0.011280 -0.000410 0.900000 0.011287
8.333133 0.051220 0.009481 -0.000247 0.900000 0.009485
8.437952 0.051220 0.006564 -0.000096 0.900000 0.006565
8.542771 0.051220 0.002406 -0.000023 0.900000 0.002406
8.647590 0.051220 0.000000 0.000000 0.000000 0.000000
0.052410 0.065854 0.000000 0.000000 0.000000 0.000000
0.157229 0.065854 -0.003427 0.003808 0.900000 0.005123
0.262048 0.065854 -0.010489 0.003604 0.900000 0.011091
0.366867 0.065854 -0.016987 0.003379 0.900000 0.017320
0.471687 0.065854 -0.021788 0.003291 0.900000 0.022035
0.576506 0.065854 -0.024870 0.003309 0.900000 0.025090
0.681325 0.065854 -0.026589 0.003309 0.900000 0.026794
0.786145 0.065854 -0.027199 0.003353 0.900000 0.027405
0.890964 0.065854 -0.026938 0.003467 0.900000 0.027160
0.995783 0.065854 -0.026369 0.003659 0.900000 0.026622
1.100602 0.065854 -0.025824 0.003830 0.900000 0.026107
1.205422 0.065854 -0.025183 0.003857 0.900000 0.025476
1.310241 0.065854 -0.024241 0.003719 0.900000 0.024524
1.415060 0.065854 -0.023065 0.003727 0.900000 0.023364
1.519880 0.065854 -0.021846 0.003701 0.900000 0.022157
1.624699 0.065854 -0.020603 0.003643 0.900000 0.020922
1.729518 0.065854 -0.019333 0.003538 0.900000 0.019655
1.834337 0.065854 -0.018071 0.003471 0.900000 0.018401
1.939157 0.065854 -0.016852 0.003393 0.900000 0.017190
2.043976 0.065854 -0.015655 0.003260 0.900000 0.015991
2.148795 0.065854 -0.014411 0.003012 0.900000 0.014722
2.253614 0.065854 -0.013052 0.002729 0.900000 0.013334
2.358434 0.065854 -0.011747 0.002566 0.900000 0.012024
2.463253 0.065854 -0.010560 0.002290 0.900000 0.010805
2.568072 0.065854 -0.009453 0.002095 0.900000 0.009682
2.672892 0.065854 -0.008517 0.001941 0.900000 0.008735
2.777711 0.065854 -0.007735 0.001768 0.900000 0.007934
2.882530 0.065854 -0.007059 0.001563 0.900000 0.007230
2.987349 0.065854 -0.006413 0.001327 0.900000 0.006549
3.092169 0.065854 -0.005714 0.001067 0.900000 0.005812
3.196988 0.065854 -0.004979 0.000860 0.900000 0.005053
3.301807 0.065854 -0.004236 0.000750 0.900000 0.004302
3.406627 0.065854 -0.003394 0.000635 0.900000 0.003453
3.511446 0.065854 -0.002352 0.000526 0.900000 0.002410
3.616265 0.065854 -0.001162 0.000466 0.900000 0.001252
3.721084 0.065854 0.000062 0.000402 0.900000 0.000407
3.825904 0.065854 0.001230 0.000311 0.900000 0.001269
3.930723 0.065854 0.002275 0.000197 0.900000 0.002283
4.035542 0.065854 0.003249 0.000070 0.900000 0.003250
4.140361 0.065854 0.004167 0.000004 0.900000 0.004167
4.245181 0.065854 0.004946 -0.000006 0.900000 0.004946
4.350000 0.065854 0.005546 -0.000001 0.900000 0.005546
4.454819 0.065854 0.005970 0.000037 0.900000 0.005970
4.559639 0.065854 0.006194 0.000071 0.900000 0.006195
4.664458 0.065854 0.006192 0.000094 0.900000 0.006193
4.769277 0.065854 0.006061 0.000114 0.900000 0.006062
4.874096 0.065854 0.005967 0.000124 0.900000 0.005968
4.978916 0.065854 0.006019 0.000121 0.900000 0.006021
5.083735 0.065854 0.006226 0.000110 0.900000 0.006227
5.188554 0.065854 0.006510 0.000094 0.900000 0.006511
5.293373 0.065854 0.006742 0.000069 0.900000 0.006743
5.398193 0.065854 0.006823 0.000024 0.900000 0.006823
5.503012 0.065854 0.006769 -0.000027 0.900000 0.006769
5.607831 0.065854 0.006536 -0.000043 0.900000 0.006536
5.712651 0.065854 0.006070 -0.000061 0.900000 0.006070
5.817470 0.065854 0.005427 -0.000109 0.900000 0.005429
5.922289 0.065854 0.004684 -0.000213 0.900000 0.004688
6.027108 0.065854 0.003878 -0.000339 0.900000 0.003892
6.131928 0.065854 0.003022 -0.000453 0.900000 0.003056
6.236747 0.065854 0.002198 -0.000530 0.900000 0.002261
6.341566 0.065854 0.001481 -0.000583 0.900000 0.001592
6.446386 0.065854 0.000939 -0.000620 0.900000 0.001125
6.551205 0.065854 0.000613 -0.000636 0.900000 0.000883
6.656024 0.065854 0.000484 -0.000667 0.900000 0.000824
6.760843 0.065854 0.000591 -0.000739 0.900000 0.000946
6.865663 0.065854 0.001002 -0.000832 0.900000 0.001302
6.970482 0.065854 0.001704 -0.000883 0.900000 0.001919
7.075301 0.065854 0.002631 -0.000874 0.900000 0.002773
7.180120 0.065854 0.003727 -0.000835 0.900000 0.003820
7.284940 0.065854 0.004962 -0.000813 0.900000 0.005028
7.389759 0.065854 0.006320 -0.000839 0.900000 0.006376
7.494578 0.065854 0.007778 -0.000872 0.900000 0.007826
7.599398 0.065854 0.009211 -0.000870 0.900000 0.009252
7.704217 0.065854 0.010452 -0.000848 0.900000 0.010486
7.809036 0.065854 0.011446 -0.000809 0.900000 0.011474
7.913855 0.065854 0.012113 -0.000764 0.900000 0.012137
8.018675 0.065854 0.012353 -0.000724 0.900000 0.012374
8.123494 0.065854 0.012132 -0.000691 0.900000 0.012152
8.228313 0.065854 0.011278 -0.000580 0.900000 0.011293
8.333133 0.065854 0.009490 -0.000348 0.900000 0.009496
8.437952 0.065854 0.006569 -0.000132 0.900000 0.006570
8.542771 0.065854 0.002406 -0.000031 0.900000 0.002406
8.647590 0.065854 0.000000 0.000000 0.000000 0.000000
0.052410 0.080488 0.000000 0.000000 0.000000 0.000000
0.157229 0.080488 -0.003417 0.004898 0.900000 0.005972
0.262048 0.080488 -0.010460 0.004641 0.900000 0.011443
0.366867 0.080488 -0.016930 0.004348 0.900000 0.017480
0.471687 0.080488 -0.021696 0.004239 0.900000 0.022106
0.576506 0.080488 -0.024764 0.004272 0.900000 0.025129
0.681325 0.080488 -0.026477 0.004271 0.900000 0.026819
0.786145 0.080488 -0.027078 0.004327 0.900000 0.027421
0.890964 0.080488 -0.026811 0.004474 0.900000 0.027182
0.995783 0.080488 -0.026247 0.004723 0.900000 0.026668
1.100602 0.080488 -0.025721 0.004947 0.900000 0.026193
1.205422 0.080488 -0.025110 0.004981 0.900000 0.025599
1.310241 0.080488 -0.024173 0.004791 0.900000 0.024643
1.415060 0.080488 -0.022995 0.004808 0.900000 0.023492
1.519880 0.080488 -0.021790 0.004776 0.900000 0.022307
1.624699 0.080488 -0.020563 0.004703 0.900000 0.021094
1.729518 0.080488 -0.019303 0.004566 0.900000 0.019836
1.834337 0.080488 -0.018042 0.004484 0.900000 0.018591
1.939157 0.080488 -0.016831 0.004386 0.900000 0.017393
2.043976 0.080488 -0.015652 0.004215 0.900000 0.016210
2.148795 0.080488 -0.014427 0.003888 0.900000 0.014942
2.253614 0.080488 -0.013072 0.003514 0.900000 0.013536
2.358434 0.080488 -0.011775 0.003312 0.900000 0.012232
2.463253 0.080488 -0.010597 0.002953 0.900000 0.011000
2.568072 0.080488 -0.009480 0.002703 0.900000 0.009858
2.672892 0.080488 -0.008540 0.002509 0.900000 0.008901
2.777711 0.080488 -0.007762 0.002285 0.900000 0.008092
2.882530 0.080488 -0.007096 0.002020 0.900000 0.007378
2.987349 0.080488 -0.006460 0.001711 0.900000 0.006683
3.092169 0.080488 -0.005765 0.001370 0.900000 0.005925
3.196988 0.080488 -0.005020 0.001103 0.900000 0.005140
3.301807 0.080488 -0.004267 0.000967 0.900000 0.004375
3.406627 0.080488 -0.003422 0.000819 0.900000 0.003518
3.511446 0.080488 -0.002377 0.000677 0.900000 0.002471
3.616265 0.080488 -0.001190 0.000598 0.900000 0.001332
3.721084 0.080488 0.000022 0.000513 0.900000 0.000514
3.825904 0.080488 0.001176 0.000395 0.900000 0.001240
3.930723 0.080488 0.002213 0.000248 0.900000 0.002227
4.035542 0.080488 0.003194 0.000084 0.900000 0.003195
4.140361 0.080488 0.004126 0.000000 0.900000 0.004126
4.245181 0.080488 0.004914 -0.000011 0.900000 0.004914
4.350000 0.080488 0.005515 -0.000007 0.900000 0.005515
4.454819 0.080488 0.005933 0.000040 0.900000 0.005934
4.559639 0.080488 0.006152 0.000083 0.900000 0.006152
4.664458 0.080488 0.006148 0.000113 0.900000 0.006149
4.769277 0.080488 0.006022 0.000142 0.900000 0.006024
4.874096 0.080488 0.005934 0.000157 0.900000 0.005936
4.978916 0.080488 0.005988 0.000152 0.900000 0.005990
5.083735 0.080488 0.006191 0.000137 0.900000 0.006192
5.188554 0.080488 0.006469 0.000114 0.900000 0.006470
5.293373 0.080488 0.006694 0.000083 0.900000 0.006695
5.398193 0.080488 0.006773 0.000025 0.900000 0.006773
5.503012 0.080488 0.006728 -0.000039 0.900000 0.006728
5.607831 0.080488 0.006506 -0.000058 0.900000 0.006507
5.712651 0.080488 0.006045 -0.000079 0.900000 0.006046
5.817470 0.080488 0.005398 -0.000141 0.900000 0.005400
5.922289 0.080488 0.004649 -0.000277 0.900000 0.004657
6.027108 0.080488 0.003845 -0.000442 0.900000 0.003870
6.131928 0.080488 0.002999 -0.000588 0.900000 0.003056
6.236747 0.080488 0.002189 -0.000685 0.900000 0.002294
6.341566 0.080488 0.001486 -0.000752 0.900000 0.001666
6.446386 0.080488 0.000953 -0.000799 0.900000 0.001243
6.551205 0.080488 0.000628 -0.000820 0.900000 0.001033
6.656024 0.080488 0.000493 -0.000860 0.900000 0.000991
6.760843 0.080488 0.000592 -0.000953 0.900000 0.001122
6.865663 0.080488 0.001003 -0.001075 0.900000 0.001470
6.970482 0.080488 0.001715 -0.001141 0.900000 0.002059
7.075301 0.080488 0.002650 -0.001126 0.900000 0.002879
7.180120 0.080488 0.003744 -0.001075 0.900000 0.003895
7.284940 0.080488 0.004967 -0.001046 0.900000 0.005076
7.389759 0.080488 0.006312 -0.001082 0.900000 0.006404
7.494578 0.080488 0.007763 -0.001127 0.900000 0.007845
7.599398 0.080488 0.009196 -0.001125 0.900000 0.009265
7.704217 0.080488 0.010440 -0.001094 0.900000 0.010497
7.809036 0.080488 0.011436 -0.001044 0.900000 0.011484
7.913855 0.080488 0.012103 -0.000986 0.900000 0.012143
8.018675 0.080488 0.012338 -0.000934 0.900000 0.012373
8.123494 0.080488 0.012119 -0.000896 0.900000 0.012152
8.228313 0.080488 0.011282 -0.000754 0.900000 0.011307
8.333133 0.080488 0.009506 -0.000448 0.900000 0.009517
8.437952 0.080488 0.006579 -0.000167 0.900000 0.006581
8.542771 0.080488 0.002407 -0.000038 0.900000 0.002408
8.647590 0.080488 0.000000 0.000000 0.000000 0.000000
0.052410 0.095122 0.000000 0.000000 0.000000 0.000000
0.157229 0.095122 -0.003410 0.005993 0.900000 0.006895
0.262048 0.095122 -0.010440 0.005684 0.900000 0.011887
0.366867 0.095122 -0.016879 0.005320 0.900000 0.017698
0.471687 0.095122 -0.021604 0.005193 0.900000 0.022219
0.576506 0.095122 -0.024657 0.005246 0.900000 0.025208
0.681325 0.095122 -0.026365 0.005245 0.900000 0.026882
0.786145 0.095122 -0.026955 0.005315 0.900000 0.027474
0.890964 0.095122 -0.026681 0.005495 0.900000 0.027241
0.995783 0.095122 -0.026120 0.005803 0.900000 0.026756
1.100602 0.095122 -0.025617 0.006083 0.900000 0.026330
1.205422 0.095122 -0.025043 0.006123 0.900000 0.025780
1.310241 0.095122 -0.024111 0.005871 0.900000 0.024816
1.415060 0.095122 -0.022927 0.005904 0.900000 0.023675
1.519880 0.095122 -0.021738 0.005866 0.900000 0.022515
1.624699 0.095122 -0.020529 0.005780 0.900000 0.021327
1.729518 0.095122 -0.019277 0.005610 0.900000 0.020077
1.834337 0.095122 -0.018017 0.005516 0.900000 0.018842
1.939157 0.095122 -0.016816 0.005401 0.900000 0.017662
2.043976 0.095122 -0.015658 0.005190 0.900000 0.016496
2.148795 0.095122 -0.014457 0.004779 0.900000 0.015227
2.253614 0.095122 -0.013101 0.004307 0.900000 0.013791
2.358434 0.095122 -0.011813 0.004072 0.900000 0.012495
2.463253 0.095122 -0.010644 0.003623 0.900000 0.011244
2.568072 0.095122 -0.009515 0.003322 0.900000 0.010078
2.672892 0.095122 -0.008571 0.003090 0.900000 0.009111
2.777711 0.095122 -0.007798 0.002816 0.900000 0.008291
2.882530 0.095122 -0.007142 0.002489 0.900000 0.007563
2.987349 0.095122 -0.006519 0.002103 0.900000 0.006850
3.092169 0.095122 -0.005826 0.001677 0.900000 0.006063
3.196988 0.095122 -0.005068 0.001348 0.900000 0.005244
3.301807 0.095122 -0.004302 0.001189 0.900000 0.004464
3.406627 0.095122 -0.003454 0.001009 0.900000 0.003599
3.511446 0.095122 -0.002405 0.000833 0.900000 0.002545
3.616265 0.095122 -0.001221 0.000735 0.900000 0.001425
3.721084 0.095122 -0.000023 0.000629 0.900000 0.000629
3.825904 0.095122 0.001116 0.000481 0.900000 0.001216
3.930723 0.095122 0.002146 0.000301 0.900000 0.002167
4.035542 0.095122 0.003134 0.000099 0.900000 0.003135
4.140361 0.095122 0.004084 -0.000001 0.900000 0.004084
4.245181 0.095122 0.004881 -0.000013 0.900000 0.004881
4.350000 0.095122 0.005483 -0.000012 0.900000 0.005483
4.454819 0.095122 0.005898 0.000045 0.900000 0.005898
4.559639 0.095122 0.006109 0.000096 0.900000 0.006110
4.664458 0.095122 0.006105 0.000134 0.900000 0.006107
4.769277 0.095122 0.005984 0.000173 0.900000 0.005986
4.874096 0.095122 0.005901 0.000194 0.900000 0.005904
4.978916 0.095122 0.005957 0.000188 0.900000 0.005959
5.083735 0.095122 0.006155 0.000167 0.900000 0.006157