TITLE="(Vx,Vy)"
VARIABLES=X,Y,Vx,Vy,Vm,V
ZONE T="T-Dummy" I=83, J=41, F=POINT
0.052410 0.007317 0.000000 0.000000 0.000000 0.000000
0.157229 0.007317 0.000000 0.000000 0.000000 0.000000
0.262048 0.007317 0.000000 0.000000 0.000000 0.000000
0.366867 0.007317 0.000000 0.000000 0.000000 0.000000
0.471687 0.007317 0.000000 0.000000 0.000000 0.000000
0.576506 0.007317 0.000000 0.000000 0.000000 0.000000
0.681325 0.007317 0.000000 0.000000 0.000000 0.000000
0.786145 0.007317 0.000000 0.000000 0.000000 0.000000
0.890964 0.007317 0.000000 0.000000 0.000000 0.000000
0.995783 0.007317 0.000000 0.000000 0.000000 0.000000
1.100602 0.007317 0.000000 0.000000 0.000000 0.000000
1.205422 0.007317 0.000000 0.000000 0.000000 0.000000
1.310241 0.007317 0.000000 0.000000 0.000000 0.000000
1.415060 0.007317 0.000000 0.000000 0.000000 0.000000
1.519880 0.007317 0.000000 0.000000 0.000000 0.000000
1.624699 0.007317 0.000000 0.000000 0.000000 0.000000
1.729518 0.007317 0.000000 0.000000 0.000000 0.000000
1.834337 0.007317 0.000000 0.000000 0.000000 0.000000
1.939157 0.007317 0.000000 0.000000 0.000000 0.000000
2.043976 0.007317 0.000000 0.000000 0.000000 0.000000
2.148795 0.007317 0.000000 0.000000 0.000000 0.000000
2.253614 0.007317 0.000000 0.000000 0.000000 0.000000
2.358434 0.007317 0.000000 0.000000 0.000000 0.000000
2.463253 0.007317 0.000000 0.000000 0.000000 0.000000
2.568072 0.007317 0.000000 0.000000 0.000000 0.000000
2.672892 0.007317 0.000000 0.000000 0.000000 0.000000
2.777711 0.007317 0.000000 0.000000 0.000000 0.000000
2.882530 0.007317 0.000000 0.000000 0.000000 0.000000
2.987349 0.007317 0.000000 0.000000 0.000000 0.000000
3.092169 0.007317 0.000000 0.000000 0.000000 0.000000
3.196988 0.007317 0.000000 0.000000 0.000000 0.000000
3.301807 0.007317 0.000000 0.000000 0.000000 0.000000
3.406627 0.007317 0.000000 0.000000 0.000000 0.000000
3.511446 0.007317 0.000000 0.000000 0.000000 0.000000
3.616265 0.007317 0.000000 0.000000 0.000000 0.000000
3.721084 0.007317 0.000000 0.000000 0.000000 0.000000
3.825904 0.007317 0.000000 0.000000 0.000000 0.000000
3.930723 0.007317 0.000000 0.000000 0.000000 0.000000
4.035542 0.007317 0.000000 0.000000 0.000000 0.000000
4.140361 0.007317 0.000000 0.000000 0.000000 0.000000
4.245181 0.007317 0.000000 0.000000 0.000000 0.000000
4.350000 0.007317 0.000000 0.000000 0.000000 0.000000
4.454819 0.007317 0.000000 0.000000 0.000000 0.000000
4.559639 0.007317 0.000000 0.000000 0.000000 0.000000
4.664458 0.007317 0.000000 0.000000 0.000000 0.000000
4.769277 0.007317 0.000000 0.000000 0.000000 0.000000
4.874096 0.007317 0.000000 0.000000 0.000000 0.000000
4.978916 0.007317 0.000000 0.000000 0.000000 0.000000
5.083735 0.007317 0.000000 0.000000 0.000000 0.000000
5.188554 0.007317 0.000000 0.000000 0.000000 0.000000
5.293373 0.007317 0.000000 0.000000 0.000000 0.000000
5.398193 0.007317 0.000000 0.000000 0.000000 0.000000
5.503012 0.007317 0.000000 0.000000 0.000000 0.000000
5.607831 0.007317 0.000000 0.000000 0.000000 0.000000
5.712651 0.007317 0.000000 0.000000 0.000000 0.000000
5.817470 0.007317 0.000000 0.000000 0.000000 0.000000
5.922289 0.007317 0.000000 0.000000 0.000000 0.000000
6.027108 0.007317 0.000000 0.000000 0.000000 0.000000
6.131928 0.007317 0.000000 0.000000 0.000000 0.000000
6.236747 0.007317 0.000000 0.000000 0.000000 0.000000
6.341566 0.007317 0.000000 0.000000 0.000000 0.000000
6.446386 0.007317 0.000000 0.000000 0.000000 0.000000
6.551205 0.007317 0.000000 0.000000 0.000000 0.000000
6.656024 0.007317 0.000000 0.000000 0.000000 0.000000
6.760843 0.007317 0.000000 0.000000 0.000000 0.000000
6.865663 0.007317 0.000000 0.000000 0.000000 0.000000
6.970482 0.007317 0.000000 0.000000 0.000000 0.000000
7.075301 0.007317 0.000000 0.000000 0.000000 0.000000
7.180120 0.007317 0.000000 0.000000 0.000000 0.000000
7.284940 0.007317 0.000000 0.000000 0.000000 0.000000
7.389759 0.007317 0.000000 0.000000 0.000000 0.000000
7.494578 0.007317 0.000000 0.000000 0.000000 0.000000
7.599398 0.007317 0.000000 0.000000 0.000000 0.000000
7.704217 0.007317 0.000000 0.000000 0.000000 0.000000
7.809036 0.007317 0.000000 0.000000 0.000000 0.000000
7.913855 0.007317 0.000000 0.000000 0.000000 0.000000
8.018675 0.007317 0.000000 0.000000 0.000000 0.000000
8.123494 0.007317 0.000000 0.000000 0.000000 0.000000
8.228313 0.007317 0.000000 0.000000 0.000000 0.000000
8.333133 0.007317 0.000000 0.000000 0.000000 0.000000
8.437952 0.007317 0.000000 0.000000 0.000000 0.000000
8.542771 0.007317 0.000000 0.000000 0.000000 0.000000
8.647590 0.007317 0.000000 0.000000 0.000000 0.000000
0.052410 0.021951 0.000000 0.000000 0.000000 0.000000
0.157229 0.021951 0.000388 0.000076 0.900000 0.000396
0.262048 0.021951 0.001753 0.000038 0.900000 0.001753
0.366867 0.021951 0.003976 -0.000008 0.900000 0.003976
0.471687 0.021951 0.006465 -0.000040 0.900000 0.006465
0.576506 0.021951 0.008505 -0.000010 0.900000 0.008505
0.681325 0.021951 0.010086 -0.000039 0.900000 0.010086
0.786145 0.021951 0.011680 -0.000080 0.900000 0.011680
0.890964 0.021951 0.012809 -0.000044 0.900000 0.012809
0.995783 0.021951 0.013057 -0.000010 0.900000 0.013057
1.100602 0.021951 0.012754 -0.000013 0.900000 0.012754
1.205422 0.021951 0.012417 -0.000052 0.900000 0.012417
1.310241 0.021951 0.012390 -0.000092 0.900000 0.012390
1.415060 0.021951 0.012571 -0.000108 0.900000 0.012572
1.519880 0.021951 0.012631 -0.000094 0.900000 0.012632
1.624699 0.021951 0.012174 -0.000042 0.900000 0.012174
1.729518 0.021951 0.010918 0.000017 0.900000 0.010918
1.834337 0.021951 0.009283 0.000012 0.900000 0.009283
1.939157 0.021951 0.008233 -0.000060 0.900000 0.008233
2.043976 0.021951 0.008212 -0.000125 0.900000 0.008213
2.148795 0.021951 0.008887 -0.000145 0.900000 0.008888
2.253614 0.021951 0.009581 -0.000109 0.900000 0.009581
2.358434 0.021951 0.009577 -0.000024 0.900000 0.009577
2.463253 0.021951 0.008506 0.000068 0.900000 0.008506
2.568072 0.021951 0.006961 0.000069 0.900000 0.006961
2.672892 0.021951 0.006199 -0.000019 0.900000 0.006199
2.777711 0.021951 0.006795 -0.000098 0.900000 0.006796
2.882530 0.021951 0.008323 -0.000123 0.900000 0.008324
2.987349 0.021951 0.009935 -0.000086 0.900000 0.009936
3.092169 0.021951 0.010760 0.000008 0.900000 0.010760
3.196988 0.021951 0.010302 0.000114 0.900000 0.010303
3.301807 0.021951 0.009181 0.000110 0.900000 0.009182
3.406627 0.021951 0.008887 -0.000006 0.900000 0.008887
3.511446 0.021951 0.010119 -0.000109 0.900000 0.010119
3.616265 0.021951 0.012321 -0.000145 0.900000 0.012322
3.721084 0.021951 0.014472 -0.000099 0.900000 0.014472
3.825904 0.021951 0.015517 0.000021 0.900000 0.015517
3.930723 0.021951 0.014848 0.000156 0.900000 0.014849
4.035542 0.021951 0.013275 0.000157 0.900000 0.013276
4.140361 0.021951 0.012639 0.000019 0.900000 0.012639
4.245181 0.021951 0.013767 -0.000103 0.900000 0.013767
4.350000 0.021951 0.015992 -0.000140 0.900000 0.015992
4.454819 0.021951 0.017990 -0.000079 0.900000 0.017990
4.559639 0.021951 0.018498 0.000052 0.900000 0.018498
4.664458 0.021951 0.017044 0.000177 0.900000 0.017044
4.769277 0.021951 0.014640 0.000156 0.900000 0.014641
4.874096 0.021951 0.013142 0.000012 0.900000 0.013142
4.978916 0.021951 0.013236 -0.000098 0.900000 0.013237
5.083735 0.021951 0.014222 -0.000125 0.900000 0.014222
5.188554 0.021951 0.015029 -0.000073 0.900000 0.015029
5.293373 0.021951 0.014780 0.000035 0.900000 0.014780
5.398193 0.021951 0.013190 0.000138 0.900000 0.013191
5.503012 0.021951 0.011094 0.000127 0.900000 0.011095
5.607831 0.021951 0.009932 0.000021 0.900000 0.009932
5.712651 0.021951 0.010214 -0.000065 0.900000 0.010214
5.817470 0.021951 0.011299 -0.000077 0.900000 0.011299
5.922289 0.021951 0.012270 -0.000036 0.900000 0.012270
6.027108 0.021951 0.012454 0.000042 0.900000 0.012454
6.131928 0.021951 0.011610 0.000114 0.900000 0.011611
6.236747 0.021951 0.010289 0.000105 0.900000 0.010289
6.341566 0.021951 0.009486 0.000029 0.900000 0.009486
6.446386 0.021951 0.009560 -0.000031 0.900000 0.009560
6.551205 0.021951 0.010110 -0.000048 0.900000 0.010110
6.656024 0.021951 0.010542 -0.000021 0.900000 0.010542
6.760843 0.021951 0.010368 0.000032 0.900000 0.010368
6.865663 0.021951 0.009513 0.000067 0.900000 0.009513
6.970482 0.021951 0.008438 0.000051 0.900000 0.008438
7.075301 0.021951 0.007616 0.000017 0.900000 0.007616
7.180120 0.021951 0.007114 -0.000009 0.900000 0.007114
7.284940 0.021951 0.006733 -0.000013 0.900000 0.006733
7.389759 0.021951 0.006217 0.000004 0.900000 0.006217
7.494578 0.021951 0.005372 0.000032 0.900000 0.005372
7.599398 0.021951 0.004196 0.000053 0.900000 0.004197
7.704217 0.021951 0.003000 0.000042 0.900000 0.003000
7.809036 0.021951 0.002191 0.000004 0.900000 0.002191
7.913855 0.021951 0.001925 -0.000027 0.900000 0.001925
8.018675 0.021951 0.002269 -0.000064 0.900000 0.002269
8.123494 0.021951 0.002810 -0.000017 0.900000 0.002810
8.228313 0.021951 0.003019 0.000046 0.900000 0.003019
8.333133 0.021951 0.002892 0.000108 0.900000 0.002894
8.437952 0.021951 0.002268 0.000199 0.900000 0.002277
8.542771 0.021951 0.000893 0.000299 0.900000 0.000941
8.647590 0.021951 0.000000 0.000000 0.000000 0.000000
0.052410 0.036585 0.000000 0.000000 0.000000 0.000000
0.157229 0.036585 0.000353 0.000232 0.900000 0.000423
0.262048 0.036585 0.001673 0.000114 0.900000 0.001677
0.366867 0.036585 0.003879 -0.000023 0.900000 0.003879
0.471687 0.036585 0.006347 -0.000120 0.900000 0.006349
0.576506 0.036585 0.008782 -0.000091 0.900000 0.008782
0.681325 0.036585 0.010445 -0.000079 0.900000 0.010446
0.786145 0.036585 0.011358 -0.000197 0.900000 0.011359
0.890964 0.036585 0.012115 -0.000137 0.900000 0.012115
0.995783 0.036585 0.012530 -0.000062 0.900000 0.012530
1.100602 0.036585 0.012622 -0.000075 0.900000 0.012622
1.205422 0.036585 0.012572 -0.000175 0.900000 0.012573
1.310241 0.036585 0.012516 -0.000269 0.900000 0.012519
1.415060 0.036585 0.012389 -0.000306 0.900000 0.012393
1.519880 0.036585 0.012077 -0.000268 0.900000 0.012080
1.624699 0.036585 0.011476 -0.000143 0.900000 0.011477
1.729518 0.036585 0.010512 0.000000 0.900000 0.010512
1.834337 0.036585 0.009459 -0.000021 0.900000 0.009459
1.939157 0.036585 0.008811 -0.000207 0.900000 0.008813
2.043976 0.036585 0.008677 -0.000362 0.900000 0.008685
2.148795 0.036585 0.008797 -0.000401 0.900000 0.008806
2.253614 0.036585 0.008856 -0.000304 0.900000 0.008862
2.358434 0.036585 0.008588 -0.000091 0.900000 0.008589
2.463253 0.036585 0.007901 0.000134 0.900000 0.007902
2.568072 0.036585 0.007129 0.000131 0.900000 0.007130
2.672892 0.036585 0.006852 -0.000088 0.900000 0.006853
2.777711 0.036585 0.007241 -0.000275 0.900000 0.007246
2.882530 0.036585 0.008019 -0.000328 0.900000 0.008025
2.987349 0.036585 0.008830 -0.000236 0.900000 0.008833
3.092169 0.036585 0.009352 -0.000007 0.900000 0.009352
3.196988 0.036585 0.009393 0.000251 0.900000 0.009396
3.301807 0.036585 0.009238 0.000235 0.900000 0.009241
3.406627 0.036585 0.009554 -0.000056 0.900000 0.009554
3.511446 0.036585 0.010552 -0.000303 0.900000 0.010557
3.616265 0.036585 0.011869 -0.000379 0.900000 0.011875
3.721084 0.036585 0.013065 -0.000263 0.900000 0.013068
3.825904 0.036585 0.013751 0.000033 0.900000 0.013751
3.930723 0.036585 0.013698 0.000363 0.900000 0.013702
4.035542 0.036585 0.013307 0.000359 0.900000 0.013312
4.140361 0.036585 0.013415 0.000014 0.900000 0.013415
4.245181 0.036585 0.014259 -0.000277 0.900000 0.014261
4.350000 0.036585 0.015423 -0.000357 0.900000 0.015427
4.454819 0.036585 0.016331 -0.000204 0.900000 0.016332
4.559639 0.036585 0.016480 0.000116 0.900000 0.016480
4.664458 0.036585 0.015693 0.000420 0.900000 0.015699
4.769277 0.036585 0.014454 0.000361 0.900000 0.014459
4.874096 0.036585 0.013617 -0.000001 0.900000 0.013617
4.978916 0.036585 0.013405 -0.000265 0.900000 0.013407
5.083735 0.036585 0.013445 -0.000320 0.900000 0.013449
5.188554 0.036585 0.013324 -0.000188 0.900000 0.013325
5.293373 0.036585 0.012768 0.000073 0.900000 0.012769
5.398193 0.036585 0.011722 0.000327 0.900000 0.011726
5.503012 0.036585 0.010577 0.000295 0.900000 0.010581
5.607831 0.036585 0.009992 0.000028 0.900000 0.009992
5.712651 0.036585 0.010141 -0.000179 0.900000 0.010143
5.817470 0.036585 0.010636 -0.000199 0.900000 0.010638
5.922289 0.036585 0.011037 -0.000094 0.900000 0.011038
6.027108 0.036585 0.011096 0.000096 0.900000 0.011097
6.131928 0.036585 0.010714 0.000272 0.900000 0.010717
6.236747 0.036585 0.010104 0.000251 0.900000 0.010107
6.341566 0.036585 0.009693 0.000065 0.900000 0.009694
6.446386 0.036585 0.009613 -0.000079 0.900000 0.009613
6.551205 0.036585 0.009673 -0.000118 0.900000 0.009674
6.656024 0.036585 0.009662 -0.000054 0.900000 0.009662
6.760843 0.036585 0.009423 0.000070 0.900000 0.009423
6.865663 0.036585 0.008944 0.000150 0.900000 0.008945
6.970482 0.036585 0.008403 0.000108 0.900000 0.008404
7.075301 0.036585 0.007889 0.000034 0.900000 0.007889
7.180120 0.036585 0.007334 -0.000021 0.900000 0.007334
7.284940 0.036585 0.006697 -0.000025 0.900000 0.006697
7.389759 0.036585 0.005957 0.000016 0.900000 0.005957
7.494578 0.036585 0.005098 0.000081 0.900000 0.005098
7.599398 0.036585 0.004157 0.000128 0.900000 0.004159
7.704217 0.036585 0.003299 0.000098 0.900000 0.003300
7.809036 0.036585 0.002714 -0.000002 0.900000 0.002714
7.913855 0.036585 0.002384 -0.000068 0.900000 0.002385
8.018675 0.036585 0.002196 -0.000139 0.900000 0.002201
8.123494 0.036585 0.002532 -0.000079 0.900000 0.002533
8.228313 0.036585 0.002988 0.000132 0.900000 0.002991
8.333133 0.036585 0.002926 0.000322 0.900000 0.002943
8.437952 0.036585 0.002325 0.000596 0.900000 0.002400
8.542771 0.036585 0.000923 0.000899 0.900000 0.001288
8.647590 0.036585 0.000000 0.000000 0.000000 0.000000
0.052410 0.051220 0.000000 0.000000 0.000000 0.000000
0.157229 0.051220 0.000310 0.000398 0.900000 0.000505
0.262048 0.051220 0.001575 0.000190 0.900000 0.001587
0.366867 0.051220 0.003757 -0.000038 0.900000 0.003757
0.471687 0.051220 0.006195 -0.000200 0.900000 0.006199
0.576506 0.051220 0.008503 -0.000219 0.900000 0.008506
0.681325 0.051220 0.010174 -0.000100 0.900000 0.010174
0.786145 0.051220 0.011200 -0.000271 0.900000 0.011203
0.890964 0.051220 0.011948 -0.000232 0.900000 0.011951
0.995783 0.051220 0.012355 -0.000145 0.900000 0.012356
1.100602 0.051220 0.012444 -0.000173 0.900000 0.012445
1.205422 0.051220 0.012402 -0.000315 0.900000 0.012406
1.310241 0.051220 0.012364 -0.000440 0.900000 0.012371
1.415060 0.051220 0.012256 -0.000484 0.900000 0.012265
1.519880 0.051220 0.011963 -0.000431 0.900000 0.011971
1.624699 0.051220 0.011378 -0.000259 0.900000 0.011381
1.729518 0.051220 0.010418 -0.000068 0.900000 0.010418
1.834337 0.051220 0.009359 -0.000112 0.900000 0.009360
1.939157 0.051220 0.008712 -0.000382 0.900000 0.008720
2.043976 0.051220 0.008591 -0.000588 0.900000 0.008611
2.148795 0.051220 0.008729 -0.000624 0.900000 0.008752
2.253614 0.051220 0.008807 -0.000478 0.900000 0.008820
2.358434 0.051220 0.008554 -0.000180 0.900000 0.008556
2.463253 0.051220 0.007866 0.000130 0.900000 0.007867
2.568072 0.051220 0.007078 0.000117 0.900000 0.007079
2.672892 0.051220 0.006792 -0.000192 0.900000 0.006795
2.777711 0.051220 0.007184 -0.000437 0.900000 0.007197
2.882530 0.051220 0.007971 -0.000494 0.900000 0.007986
2.987349 0.051220 0.008795 -0.000363 0.900000 0.008803
3.092169 0.051220 0.009328 -0.000052 0.900000 0.009328
3.196988 0.051220 0.009361 0.000300 0.900000 0.009366
3.301807 0.051220 0.009181 0.000266 0.900000 0.009185
3.406627 0.051220 0.009482 -0.000144 0.900000 0.009483
3.511446 0.051220 0.010483 -0.000473 0.900000 0.010493
3.616265 0.051220 0.011810 -0.000561 0.900000 0.011824
3.721084 0.051220 0.013022 -0.000394 0.900000 0.013028
3.825904 0.051220 0.013720 0.000013 0.900000 0.013720
3.930723 0.051220 0.013657 0.000468 0.900000 0.013665
4.035542 0.051220 0.013237 0.000450 0.900000 0.013245
4.140361 0.051220 0.013329 -0.000035 0.900000 0.013329
4.245181 0.051220 0.014177 -0.000421 0.900000 0.014183
4.350000 0.051220 0.015356 -0.000512 0.900000 0.015365
4.454819 0.051220 0.016283 -0.000297 0.900000 0.016285
4.559639 0.051220 0.016441 0.000141 0.900000 0.016442
4.664458 0.051220 0.015643 0.000555 0.900000 0.015653
4.769277 0.051220 0.014379 0.000460 0.900000 0.014387
4.874096 0.051220 0.013535 -0.000051 0.900000 0.013535
4.978916 0.051220 0.013337 -0.000404 0.900000 0.013343
5.083735 0.051220 0.013397 -0.000462 0.900000 0.013405
5.188554 0.051220 0.013292 -0.000277 0.900000 0.013295
5.293373 0.051220 0.012747 0.000080 0.900000 0.012747
5.398193 0.051220 0.011695 0.000427 0.900000 0.011703
5.503012 0.051220 0.010534 0.000376 0.900000 0.010541
5.607831 0.051220 0.009943 0.000001 0.900000 0.009943
5.712651 0.051220 0.010104 -0.000281 0.900000 0.010108
5.817470 0.051220 0.010615 -0.000290 0.900000 0.010618
5.922289 0.051220 0.011026 -0.000140 0.900000 0.011027
6.027108 0.051220 0.011092 0.000120 0.900000 0.011093
6.131928 0.051220 0.010707 0.000363 0.900000 0.010713
6.236747 0.051220 0.010085 0.000335 0.900000 0.010091
6.341566 0.051220 0.009670 0.000079 0.900000 0.009671
6.446386 0.051220 0.009595 -0.000113 0.900000 0.009596
6.551205 0.051220 0.009665 -0.000163 0.900000 0.009666
6.656024 0.051220 0.009666 -0.000078 0.900000 0.009666
6.760843 0.051220 0.009436 0.000083 0.900000 0.009436
6.865663 0.051220 0.008958 0.000183 0.900000 0.008960
6.970482 0.051220 0.008422 0.000118 0.900000 0.008423
7.075301 0.051220 0.007916 0.000033 0.900000 0.007916
7.180120 0.051220 0.007368 -0.000026 0.900000 0.007368
7.284940 0.051220 0.006740 -0.000026 0.900000 0.006740
7.389759 0.051220 0.006014 0.000030 0.900000 0.006014
7.494578 0.051220 0.005170 0.000113 0.900000 0.005171
7.599398 0.051220 0.004240 0.000172 0.900000 0.004244
7.704217 0.051220 0.003389 0.000124 0.900000 0.003392
7.809036 0.051220 0.002821 -0.000023 0.900000 0.002821
7.913855 0.051220 0.002561 -0.000106 0.900000 0.002563
8.018675 0.051220 0.002466 -0.000164 0.900000 0.002471
8.123494 0.051220 0.002691 -0.000145 0.900000 0.002694
8.228313 0.051220 0.003020 0.000210 0.900000 0.003027
8.333133 0.051220 0.002995 0.000529 0.900000 0.003041
8.437952 0.051220 0.002414 0.000992 0.900000 0.002610
8.542771 0.051220 0.000969 0.001510 0.900000 0.001794
8.647590 0.051220 0.000000 0.000000 0.000000 0.000000
0.052410 0.065854 0.000000 0.000000 0.000000 0.000000
0.157229 0.065854 0.000260 0.000576 0.900000 0.000632
0.262048 0.065854 0.001462 0.000269 0.900000 0.001487
0.366867 0.065854 0.003618 -0.000053 0.900000 0.003618
0.471687 0.065854 0.006023 -0.000279 0.900000 0.006030
0.576506 0.065854 0.008238 -0.000329 0.900000 0.008244
0.681325 0.065854 0.009917 -0.000152 0.900000 0.009918
0.786145 0.065854 0.011028 -0.000347 0.900000 0.011033
0.890964 0.065854 0.011777 -0.000327 0.900000 0.011782
0.995783 0.065854 0.012178 -0.000228 0.900000 0.012180
1.100602 0.065854 0.012269 -0.000272 0.900000 0.012272
1.205422 0.065854 0.012238 -0.000457 0.900000 0.012246
1.310241 0.065854 0.012215 -0.000614 0.900000 0.012230
1.415060 0.065854 0.012122 -0.000666 0.900000 0.012140
1.519880 0.065854 0.011845 -0.000598 0.900000 0.011860
1.624699 0.065854 0.011276 -0.000378 0.900000 0.011282
1.729518 0.065854 0.010322 -0.000135 0.900000 0.010323
1.834337 0.065854 0.009260 -0.000203 0.900000 0.009263
1.939157 0.065854 0.008619 -0.000560 0.900000 0.008637
2.043976 0.065854 0.008512 -0.000816 0.900000 0.008551
2.148795 0.065854 0.008663 -0.000851 0.900000 0.008705
2.253614 0.065854 0.008754 -0.000655 0.900000 0.008778
2.358434 0.065854 0.008514 -0.000272 0.900000 0.008518
2.463253 0.065854 0.007829 0.000126 0.900000 0.007830
2.568072 0.065854 0.007031 0.000103 0.900000 0.007032
2.672892 0.065854 0.006740 -0.000297 0.900000 0.006747
2.777711 0.065854 0.007134 -0.000600 0.900000 0.007159
2.882530 0.065854 0.007922 -0.000662 0.900000 0.007950
2.987349 0.065854 0.008753 -0.000493 0.900000 0.008767
3.092169 0.065854 0.009298 -0.000100 0.900000 0.009299
3.196988 0.065854 0.009330 0.000350 0.900000 0.009336
3.301807 0.065854 0.009130 0.000299 0.900000 0.009135
3.406627 0.065854 0.009421 -0.000235 0.900000 0.009424
3.511446 0.065854 0.010422 -0.000647 0.900000 0.010443
3.616265 0.065854 0.011752 -0.000747 0.900000 0.011776
3.721084 0.065854 0.012971 -0.000529 0.900000 0.012982
3.825904 0.065854 0.013683 -0.000011 0.900000 0.013683
3.930723 0.065854 0.013617 0.000574 0.900000 0.013629
4.035542 0.065854 0.013174 0.000544 0.900000 0.013185
4.140361 0.065854 0.013254 -0.000086 0.900000 0.013254
4.245181 0.065854 0.014106 -0.000568 0.900000 0.014117
4.350000 0.065854 0.015290 -0.000671 0.900000 0.015305
4.454819 0.065854 0.016226 -0.000394 0.900000 0.016231
4.559639 0.065854 0.016397 0.000162 0.900000 0.016398
4.664458 0.065854 0.015593 0.000692 0.900000 0.015609
4.769277 0.065854 0.014309 0.000560 0.900000 0.014320
4.874096 0.065854 0.013463 -0.000104 0.900000 0.013464
4.978916 0.065854 0.013280 -0.000545 0.900000 0.013291
5.083735 0.065854 0.013349 -0.000608 0.900000 0.013363
5.188554 0.065854 0.013254 -0.000368 0.900000 0.013259
5.293373 0.065854 0.012720 0.000083 0.900000 0.012721
5.398193 0.065854 0.011669 0.000529 0.900000 0.011681
5.503012 0.065854 0.010497 0.000458 0.900000 0.010507
5.607831 0.065854 0.009902 -0.000028 0.900000 0.009902
5.712651 0.065854 0.010075 -0.000386 0.900000 0.010083
5.817470 0.065854 0.010596 -0.000384 0.900000 0.010602
5.922289 0.065854 0.011011 -0.000189 0.900000 0.011013
6.027108 0.065854 0.011086 0.000142 0.900000 0.011087
6.131928 0.065854 0.010701 0.000455 0.900000 0.010710
6.236747 0.065854 0.010071 0.000419 0.900000 0.010080
6.341566 0.065854 0.009654 0.000091 0.900000 0.009654
6.446386 0.065854 0.009582 -0.000148 0.900000 0.009583
6.551205 0.065854 0.009656 -0.000210 0.900000 0.009658
6.656024 0.065854 0.009665 -0.000105 0.900000 0.009666
6.760843 0.065854 0.009443 0.000095 0.900000 0.009444
6.865663 0.065854 0.008970 0.000216 0.900000 0.008973
6.970482 0.065854 0.008446 0.000125 0.900000 0.008446
7.075301 0.065854 0.007951 0.000032 0.900000 0.007952
7.180120 0.065854 0.007407 -0.000032 0.900000 0.007407
7.284940 0.065854 0.006785 -0.000027 0.900000 0.006785
7.389759 0.065854 0.006069 0.000042 0.900000 0.006069
7.494578 0.065854 0.005239 0.000143 0.900000 0.005241
7.599398 0.065854 0.004320 0.000215 0.900000 0.004326
7.704217 0.065854 0.003478 0.000150 0.900000 0.003481
7.809036 0.065854 0.002929 -0.000047 0.900000 0.002929
7.913855 0.065854 0.002733 -0.000158 0.900000 0.002737
8.018675 0.065854 0.002709 -0.000192 0.900000 0.002716
8.123494 0.065854 0.002853 -0.000175 0.900000 0.002859
8.228313 0.065854 0.003088 0.000284 0.900000 0.003101
8.333133 0.065854 0.003092 0.000732 0.900000 0.003178
8.437952 0.065854 0.002535 0.001386 0.900000 0.002889
8.542771 0.065854 0.001031 0.002134 0.900000 0.002370
8.647590 0.065854 0.000000 0.000000 0.000000 0.000000
0.052410 0.080488 0.000000 0.000000 0.000000 0.000000
0.157229 0.080488 0.000201 0.000767 0.900000 0.000793
0.262048 0.080488 0.001328 0.000350 0.900000 0.001374
0.366867 0.080488 0.003456 -0.000068 0.900000 0.003457
0.471687 0.080488 0.005827 -0.000357 0.900000 0.005837
0.576506 0.080488 0.007972 -0.000430 0.900000 0.007984
0.681325 0.080488 0.009661 -0.000228 0.900000 0.009663
0.786145 0.080488 0.010835 -0.000427 0.900000 0.010843
0.890964 0.080488 0.011588 -0.000421 0.900000 0.011596
0.995783 0.080488 0.011987 -0.000310 0.900000 0.011991
1.100602 0.080488 0.012083 -0.000371 0.900000 0.012089
1.205422 0.080488 0.012066 -0.000601 0.900000 0.012081
1.310241 0.080488 0.012058 -0.000790 0.900000 0.012084
1.415060 0.080488 0.011976 -0.000850 0.900000 0.012006
1.519880 0.080488 0.011712 -0.000768 0.900000 0.011737
1.624699 0.080488 0.011158 -0.000501 0.900000 0.011169
1.729518 0.080488 0.010213 -0.000204 0.900000 0.010215
1.834337 0.080488 0.009155 -0.000295 0.900000 0.009160
1.939157 0.080488 0.008525 -0.000741 0.900000 0.008557
2.043976 0.080488 0.008432 -0.001047 0.900000 0.008497
2.148795 0.080488 0.008592 -0.001081 0.900000 0.008659
2.253614 0.080488 0.008690 -0.000836 0.900000 0.008730
2.358434 0.080488 0.008462 -0.000368 0.900000 0.008470
2.463253 0.080488 0.007785 0.000121 0.900000 0.007786
2.568072 0.080488 0.006985 0.000090 0.900000 0.006985
2.672892 0.080488 0.006694 -0.000403 0.900000 0.006706
2.777711 0.080488 0.007088 -0.000765 0.900000 0.007129
2.882530 0.080488 0.007869 -0.000833 0.900000 0.007913
2.987349 0.080488 0.008698 -0.000628 0.900000 0.008721
3.092169 0.080488 0.009254 -0.000153 0.900000 0.009255
3.196988 0.080488 0.009289 0.000399 0.900000 0.009298
3.301807 0.080488 0.009079 0.000332 0.900000 0.009085
3.406627 0.080488 0.009365 -0.000329 0.900000 0.009371
3.511446 0.080488 0.010366 -0.000823 0.900000 0.010398
3.616265 0.080488 0.011687 -0.000936 0.900000 0.011724
3.721084 0.080488 0.012904 -0.000669 0.900000 0.012922
3.825904 0.080488 0.013628 -0.000039 0.900000 0.013628
3.930723 0.080488 0.013566 0.000680 0.900000 0.013583
4.035542 0.080488 0.013110 0.000640 0.900000 0.013126
4.140361 0.080488 0.013186 -0.000140 0.900000 0.013186
4.245181 0.080488 0.014039 -0.000717 0.900000 0.014058
4.350000 0.080488 0.015217 -0.000832 0.900000 0.015240
4.454819 0.080488 0.016151 -0.000496 0.900000 0.016159
4.559639 0.080488 0.016332 0.000180 0.900000 0.016333
4.664458 0.080488 0.015528 0.000831 0.900000 0.015551
4.769277 0.080488 0.014234 0.000662 0.900000 0.014250
4.874096 0.080488 0.013396 -0.000161 0.900000 0.013397
4.978916 0.080488 0.013226 -0.000690 0.900000 0.013244
5.083735 0.080488 0.013296 -0.000756 0.900000 0.013318
5.188554 0.080488 0.013201 -0.000462 0.900000 0.013209
5.293373 0.080488 0.012677 0.000084 0.900000 0.012678
5.398193 0.080488 0.011633 0.000631 0.900000 0.011650
5.503012 0.080488 0.010457 0.000541 0.900000 0.010471
5.607831 0.080488 0.009865 -0.000059 0.900000 0.009865
5.712651 0.080488 0.010051 -0.000496 0.900000 0.010063
5.817470 0.080488 0.010576 -0.000479 0.900000 0.010587
5.922289 0.080488 0.010989 -0.000240 0.900000 0.010991
6.027108 0.080488 0.011069 0.000161 0.900000 0.011070
6.131928 0.080488 0.010689 0.000547 0.900000 0.010703
6.236747 0.080488 0.010059 0.000503 0.900000 0.010072
6.341566 0.080488 0.009643 0.000102 0.900000 0.009644
6.446386 0.080488 0.009572 -0.000185 0.900000 0.009574
6.551205 0.080488 0.009644 -0.000258 0.900000 0.009648
6.656024 0.080488 0.009656 -0.000134 0.900000 0.009657
6.760843 0.080488 0.009442 0.000106 0.900000 0.009442
6.865663 0.080488 0.008976 0.000248 0.900000 0.008980
6.970482 0.080488 0.008473 0.000129 0.900000 0.008474
7.075301 0.080488 0.007997 0.000031 0.900000 0.007997
7.180120 0.080488 0.007453 -0.000039 0.900000 0.007453
7.284940 0.080488 0.006831 -0.000030 0.900000 0.006831
7.389759 0.080488 0.006123 0.000052 0.900000 0.006123
7.494578 0.080488 0.005306 0.000172 0.900000 0.005309
7.599398 0.080488 0.004400 0.000258 0.900000 0.004408
7.704217 0.080488 0.003569 0.000176 0.900000 0.003573
7.809036 0.080488 0.003040 -0.000074 0.900000 0.003041
7.913855 0.080488 0.002904 -0.000221 0.900000 0.002913
8.018675 0.080488 0.002938 -0.000219 0.900000 0.002946
8.123494 0.080488 0.003024 -0.000179 0.900000 0.003029
8.228313 0.080488 0.003192 0.000357 0.900000 0.003212
8.333133 0.080488 0.003222 0.000928 0.900000 0.003353
8.437952 0.080488 0.002692 0.001779 0.900000 0.003227
8.542771 0.080488 0.001111 0.002778 0.900000 0.002992
8.647590 0.080488 0.000000 0.000000 0.000000 0.000000
0.052410 0.095122 0.000000 0.000000 0.000000 0.000000
0.157229 0.095122 0.000132 0.000976 0.900000 0.000985
0.262048 0.095122 0.001177 0.000433 0.900000 0.001254
0.366867 0.095122 0.003279 -0.000084 0.900000 0.003280
0.471687 0.095122 0.005615 -0.000436 0.900000 0.005632
0.576506 0.095122 0.007712 -0.000528 0.900000 0.007730
0.681325 0.095122 0.009414 -0.000322 0.900000 0.009419
0.786145 0.095122 0.010636 -0.000509 0.900000 0.010648
0.890964 0.095122 0.011394 -0.000514 0.900000 0.011405
0.995783 0.095122 0.011792 -0.000392 0.900000 0.011799
1.100602 0.095122 0.011899 -0.000471 0.900000 0.011908
1.205422 0.095122 0.011898 -0.000747 0.900000 0.011922
1.310241 0.095122 0.011904 -0.000968 0.900000 0.011944
1.415060 0.095122 0.011829 -0.001035 0.900000 0.011875
1.519880 0.095122 0.011573 -0.000941 0.900000 0.011611
1.624699 0.095122 0.011034 -0.000627 0.900000 0.011051
1.729518 0.095122 0.010100 -0.000275 0.900000 0.010104
1.834337 0.095122 0.009051 -0.000389 0.900000 0.009059
1.939157 0.095122 0.008437 -0.000926 0.900000 0.008488
2.043976 0.095122 0.008359 -0.001280 0.900000 0.008457
2.148795 0.095122 0.008521 -0.001312 0.900000 0.008621
2.253614 0.095122 0.008620 -0.001019 0.900000 0.008680
2.358434 0.095122 0.008401 -0.000468 0.900000 0.008414
2.463253 0.095122 0.007738 0.000115 0.900000 0.007739
2.568072 0.095122 0.006944 0.000075 0.900000 0.006944
2.672892 0.095122 0.006659 -0.000513 0.900000 0.006679
2.777711 0.095122 0.007049 -0.000931 0.900000 0.007110
2.882530 0.095122 0.007813 -0.001003 0.900000 0.007878
2.987349 0.095122 0.008633 -0.000766 0.900000 0.008667
3.092169 0.095122 0.009198 -0.000210 0.900000 0.009200
3.196988 0.095122 0.009244 0.000447 0.900000 0.009255
3.301807 0.095122 0.009034 0.000365 0.900000 0.009042
3.406627 0.095122 0.009322 -0.000425 0.900000 0.009332
3.511446 0.095122 0.010318 -0.001000 0.900000 0.010367
3.616265 0.095122 0.011621 -0.001126 0.900000 0.011675
3.721084 0.095122 0.012826 -0.000812 0.900000 0.012852
3.825904 0.095122 0.013560 -0.000072 0.900000 0.013560
3.930723 0.095122 0.013510 0.000787 0.900000 0.013533
4.035542 0.095122 0.013054 0.000736 0.900000 0.013075
4.140361 0.095122 0.013133 -0.000197 0.900000 0.013135
4.245181 0.095122 0.013984 -0.000868 0.900000 0.014011
4.350000 0.095122 0.015143 -0.000995 0.900000 0.015176
4.454819 0.095122 0.016064 -0.000600 0.900000 0.016075
4.559639 0.095122 0.016251 0.000193 0.900000 0.016252
4.664458 0.095122 0.015455 0.000971 0.900000 0.015486
4.769277 0.095122 0.014164 0.000764 0.900000 0.014184
4.874096 0.095122 0.013341 -0.000222 0.900000 0.013343
4.978916 0.095122 0.013182 -0.000835 0.900000 0.013209
5.083735 0.095122 0.013244 -0.000903 0.900000 0.013275
5.188554 0.095122 0.013139 -0.000557 0.900000 0.013150