TITLE="(Vx,Vy)"
VARIABLES=X,Y,Vx,Vy,Vm,V
ZONE T="T-Dummy" I=83, J=41, F=POINT
0.052410 0.007317 0.000000 0.000000 0.000000 0.000000
0.157229 0.007317 0.000000 0.000000 0.000000 0.000000
0.262048 0.007317 0.000000 0.000000 0.000000 0.000000
0.366867 0.007317 0.000000 0.000000 0.000000 0.000000
0.471687 0.007317 0.000000 0.000000 0.000000 0.000000
0.576506 0.007317 0.000000 0.000000 0.000000 0.000000
0.681325 0.007317 0.000000 0.000000 0.000000 0.000000
0.786145 0.007317 0.000000 0.000000 0.000000 0.000000
0.890964 0.007317 0.000000 0.000000 0.000000 0.000000
0.995783 0.007317 0.000000 0.000000 0.000000 0.000000
1.100602 0.007317 0.000000 0.000000 0.000000 0.000000
1.205422 0.007317 0.000000 0.000000 0.000000 0.000000
1.310241 0.007317 0.000000 0.000000 0.000000 0.000000
1.415060 0.007317 0.000000 0.000000 0.000000 0.000000
1.519880 0.007317 0.000000 0.000000 0.000000 0.000000
1.624699 0.007317 0.000000 0.000000 0.000000 0.000000
1.729518 0.007317 0.000000 0.000000 0.000000 0.000000
1.834337 0.007317 0.000000 0.000000 0.000000 0.000000
1.939157 0.007317 0.000000 0.000000 0.000000 0.000000
2.043976 0.007317 0.000000 0.000000 0.000000 0.000000
2.148795 0.007317 0.000000 0.000000 0.000000 0.000000
2.253614 0.007317 0.000000 0.000000 0.000000 0.000000
2.358434 0.007317 0.000000 0.000000 0.000000 0.000000
2.463253 0.007317 0.000000 0.000000 0.000000 0.000000
2.568072 0.007317 0.000000 0.000000 0.000000 0.000000
2.672892 0.007317 0.000000 0.000000 0.000000 0.000000
2.777711 0.007317 0.000000 0.000000 0.000000 0.000000
2.882530 0.007317 0.000000 0.000000 0.000000 0.000000
2.987349 0.007317 0.000000 0.000000 0.000000 0.000000
3.092169 0.007317 0.000000 0.000000 0.000000 0.000000
3.196988 0.007317 0.000000 0.000000 0.000000 0.000000
3.301807 0.007317 0.000000 0.000000 0.000000 0.000000
3.406627 0.007317 0.000000 0.000000 0.000000 0.000000
3.511446 0.007317 0.000000 0.000000 0.000000 0.000000
3.616265 0.007317 0.000000 0.000000 0.000000 0.000000
3.721084 0.007317 0.000000 0.000000 0.000000 0.000000
3.825904 0.007317 0.000000 0.000000 0.000000 0.000000
3.930723 0.007317 0.000000 0.000000 0.000000 0.000000
4.035542 0.007317 0.000000 0.000000 0.000000 0.000000
4.140361 0.007317 0.000000 0.000000 0.000000 0.000000
4.245181 0.007317 0.000000 0.000000 0.000000 0.000000
4.350000 0.007317 0.000000 0.000000 0.000000 0.000000
4.454819 0.007317 0.000000 0.000000 0.000000 0.000000
4.559639 0.007317 0.000000 0.000000 0.000000 0.000000
4.664458 0.007317 0.000000 0.000000 0.000000 0.000000
4.769277 0.007317 0.000000 0.000000 0.000000 0.000000
4.874096 0.007317 0.000000 0.000000 0.000000 0.000000
4.978916 0.007317 0.000000 0.000000 0.000000 0.000000
5.083735 0.007317 0.000000 0.000000 0.000000 0.000000
5.188554 0.007317 0.000000 0.000000 0.000000 0.000000
5.293373 0.007317 0.000000 0.000000 0.000000 0.000000
5.398193 0.007317 0.000000 0.000000 0.000000 0.000000
5.503012 0.007317 0.000000 0.000000 0.000000 0.000000
5.607831 0.007317 0.000000 0.000000 0.000000 0.000000
5.712651 0.007317 0.000000 0.000000 0.000000 0.000000
5.817470 0.007317 0.000000 0.000000 0.000000 0.000000
5.922289 0.007317 0.000000 0.000000 0.000000 0.000000
6.027108 0.007317 0.000000 0.000000 0.000000 0.000000
6.131928 0.007317 0.000000 0.000000 0.000000 0.000000
6.236747 0.007317 0.000000 0.000000 0.000000 0.000000
6.341566 0.007317 0.000000 0.000000 0.000000 0.000000
6.446386 0.007317 0.000000 0.000000 0.000000 0.000000
6.551205 0.007317 0.000000 0.000000 0.000000 0.000000
6.656024 0.007317 0.000000 0.000000 0.000000 0.000000
6.760843 0.007317 0.000000 0.000000 0.000000 0.000000
6.865663 0.007317 0.000000 0.000000 0.000000 0.000000
6.970482 0.007317 0.000000 0.000000 0.000000 0.000000
7.075301 0.007317 0.000000 0.000000 0.000000 0.000000
7.180120 0.007317 0.000000 0.000000 0.000000 0.000000
7.284940 0.007317 0.000000 0.000000 0.000000 0.000000
7.389759 0.007317 0.000000 0.000000 0.000000 0.000000
7.494578 0.007317 0.000000 0.000000 0.000000 0.000000
7.599398 0.007317 0.000000 0.000000 0.000000 0.000000
7.704217 0.007317 0.000000 0.000000 0.000000 0.000000
7.809036 0.007317 0.000000 0.000000 0.000000 0.000000
7.913855 0.007317 0.000000 0.000000 0.000000 0.000000
8.018675 0.007317 0.000000 0.000000 0.000000 0.000000
8.123494 0.007317 0.000000 0.000000 0.000000 0.000000
8.228313 0.007317 0.000000 0.000000 0.000000 0.000000
8.333133 0.007317 0.000000 0.000000 0.000000 0.000000
8.437952 0.007317 0.000000 0.000000 0.000000 0.000000
8.542771 0.007317 0.000000 0.000000 0.000000 0.000000
8.647590 0.007317 0.000000 0.000000 0.000000 0.000000
0.052410 0.021951 0.000000 0.000000 0.000000 0.000000
0.157229 0.021951 -0.001984 -0.000047 0.900000 0.001984
0.262048 0.021951 -0.005935 -0.000049 0.900000 0.005935
0.366867 0.021951 -0.009643 -0.000058 0.900000 0.009643
0.471687 0.021951 -0.012797 -0.000074 0.900000 0.012797
0.576506 0.021951 -0.015182 -0.000100 0.900000 0.015182
0.681325 0.021951 -0.016783 -0.000119 0.900000 0.016783
0.786145 0.021951 -0.017977 -0.000111 0.900000 0.017977
0.890964 0.021951 -0.019049 -0.000103 0.900000 0.019049
0.995783 0.021951 -0.019887 -0.000111 0.900000 0.019887
1.100602 0.021951 -0.020142 -0.000142 0.900000 0.020143
1.205422 0.021951 -0.019592 -0.000166 0.900000 0.019593
1.310241 0.021951 -0.018429 -0.000167 0.900000 0.018430
1.415060 0.021951 -0.016994 -0.000151 0.900000 0.016995
1.519880 0.021951 -0.015650 -0.000122 0.900000 0.015650
1.624699 0.021951 -0.014736 -0.000088 0.900000 0.014736
1.729518 0.021951 -0.014265 -0.000071 0.900000 0.014265
1.834337 0.021951 -0.013830 -0.000089 0.900000 0.013831
1.939157 0.021951 -0.013006 -0.000111 0.900000 0.013006
2.043976 0.021951 -0.011788 -0.000112 0.900000 0.011788
2.148795 0.021951 -0.010524 -0.000090 0.900000 0.010524
2.253614 0.021951 -0.009668 -0.000050 0.900000 0.009668
2.358434 0.021951 -0.009594 -0.000005 0.900000 0.009594
2.463253 0.021951 -0.010262 0.000016 0.900000 0.010262
2.568072 0.021951 -0.011019 -0.000012 0.900000 0.011019
2.672892 0.021951 -0.011189 -0.000049 0.900000 0.011190
2.777711 0.021951 -0.010738 -0.000060 0.900000 0.010739
2.882530 0.021951 -0.010126 -0.000044 0.900000 0.010126
2.987349 0.021951 -0.009953 -0.000003 0.900000 0.009953
3.092169 0.021951 -0.010716 0.000046 0.900000 0.010717
3.196988 0.021951 -0.012335 0.000058 0.900000 0.012335
3.301807 0.021951 -0.013945 0.000012 0.900000 0.013945
3.406627 0.021951 -0.014708 -0.000039 0.900000 0.014708
3.511446 0.021951 -0.014603 -0.000055 0.900000 0.014603
3.616265 0.021951 -0.014144 -0.000037 0.900000 0.014144
3.721084 0.021951 -0.013960 0.000005 0.900000 0.013960
3.825904 0.021951 -0.014534 0.000054 0.900000 0.014534
3.930723 0.021951 -0.015714 0.000062 0.900000 0.015714
4.035542 0.021951 -0.016548 0.000007 0.900000 0.016548
4.140361 0.021951 -0.016157 -0.000047 0.900000 0.016157
4.245181 0.021951 -0.014605 -0.000056 0.900000 0.014605
4.350000 0.021951 -0.012612 -0.000025 0.900000 0.012612
4.454819 0.021951 -0.010938 0.000031 0.900000 0.010938
4.559639 0.021951 -0.010027 0.000085 0.900000 0.010027
4.664458 0.021951 -0.009687 0.000096 0.900000 0.009688
4.769277 0.021951 -0.008965 0.000042 0.900000 0.008966
4.874096 0.021951 -0.007034 -0.000011 0.900000 0.007034
4.978916 0.021951 -0.004066 -0.000021 0.900000 0.004066
5.083735 0.021951 -0.000809 -0.000002 0.900000 0.000809
5.188554 0.021951 0.002041 0.000038 0.900000 0.002041
5.293373 0.021951 0.003982 0.000082 0.900000 0.003983
5.398193 0.021951 0.005037 0.000090 0.900000 0.005038
5.503012 0.021951 0.006034 0.000034 0.900000 0.006034
5.607831 0.021951 0.007783 -0.000025 0.900000 0.007783
5.712651 0.021951 0.010172 -0.000033 0.900000 0.010172
5.817470 0.021951 0.012618 -0.000015 0.900000 0.012618
5.922289 0.021951 0.014685 0.000018 0.900000 0.014685
6.027108 0.021951 0.016126 0.000050 0.900000 0.016126
6.131928 0.021951 0.017064 0.000054 0.900000 0.017064
6.236747 0.021951 0.018080 0.000020 0.900000 0.018080
6.341566 0.021951 0.019662 -0.000014 0.900000 0.019662
6.446386 0.021951 0.021739 -0.000023 0.900000 0.021739
6.551205 0.021951 0.023959 -0.000020 0.900000 0.023959
6.656024 0.021951 0.026026 -0.000009 0.900000 0.026026
6.760843 0.021951 0.027666 0.000018 0.900000 0.027666
6.865663 0.021951 0.028844 0.000027 0.900000 0.028844
6.970482 0.021951 0.029919 0.000013 0.900000 0.029919
7.075301 0.021951 0.031193 0.000002 0.900000 0.031193
7.180120 0.021951 0.032608 0.000008 0.900000 0.032608
7.284940 0.021951 0.033959 0.000018 0.900000 0.033959
7.389759 0.021951 0.035191 0.000011 0.900000 0.035191
7.494578 0.021951 0.036284 0.000010 0.900000 0.036284
7.599398 0.021951 0.037143 0.000015 0.900000 0.037143
7.704217 0.021951 0.037753 0.000017 0.900000 0.037753
7.809036 0.021951 0.038153 0.000024 0.900000 0.038153
7.913855 0.021951 0.038047 0.000054 0.900000 0.038047
8.018675 0.021951 0.036828 0.000099 0.900000 0.036828
8.123494 0.021951 0.034608 0.000089 0.900000 0.034608
8.228313 0.021951 0.031137 0.000132 0.900000 0.031137
8.333133 0.021951 0.025367 0.000229 0.900000 0.025368
8.437952 0.021951 0.016844 0.000346 0.900000 0.016848
8.542771 0.021951 0.005939 0.000432 0.900000 0.005955
8.647590 0.021951 0.000000 0.000000 0.000000 0.000000
0.052410 0.036585 0.000000 0.000000 0.000000 0.000000
0.157229 0.036585 -0.001981 -0.000141 0.900000 0.001986
0.262048 0.036585 -0.005920 -0.000148 0.900000 0.005922
0.366867 0.036585 -0.009601 -0.000175 0.900000 0.009603
0.471687 0.036585 -0.012714 -0.000225 0.900000 0.012716
0.576506 0.036585 -0.015081 -0.000307 0.900000 0.015085
0.681325 0.036585 -0.016767 -0.000412 0.900000 0.016772
0.786145 0.036585 -0.018045 -0.000389 0.900000 0.018049
0.890964 0.036585 -0.019100 -0.000365 0.900000 0.019104
0.995783 0.036585 -0.019885 -0.000388 0.900000 0.019889
1.100602 0.036585 -0.020095 -0.000480 0.900000 0.020101
1.205422 0.036585 -0.019545 -0.000555 0.900000 0.019553
1.310241 0.036585 -0.018425 -0.000564 0.900000 0.018434
1.415060 0.036585 -0.017048 -0.000524 0.900000 0.017056
1.519880 0.036585 -0.015734 -0.000443 0.900000 0.015740
1.624699 0.036585 -0.014793 -0.000344 0.900000 0.014797
1.729518 0.036585 -0.014246 -0.000294 0.900000 0.014249
1.834337 0.036585 -0.013747 -0.000346 0.900000 0.013751
1.939157 0.036585 -0.012928 -0.000417 0.900000 0.012935
2.043976 0.036585 -0.011782 -0.000429 0.900000 0.011790
2.148795 0.036585 -0.010609 -0.000374 0.900000 0.010615
2.253614 0.036585 -0.009803 -0.000261 0.900000 0.009807
2.358434 0.036585 -0.009695 -0.000126 0.900000 0.009696
2.463253 0.036585 -0.010259 -0.000065 0.900000 0.010259
2.568072 0.036585 -0.010933 -0.000147 0.900000 0.010934
2.672892 0.036585 -0.011117 -0.000264 0.900000 0.011120
2.777711 0.036585 -0.010769 -0.000309 0.900000 0.010773
2.882530 0.036585 -0.010278 -0.000270 0.900000 0.010282
2.987349 0.036585 -0.010167 -0.000156 0.900000 0.010168
3.092169 0.036585 -0.010879 -0.000010 0.900000 0.010879
3.196988 0.036585 -0.012365 0.000032 0.900000 0.012365
3.301807 0.036585 -0.013876 -0.000098 0.900000 0.013877
3.406627 0.036585 -0.014657 -0.000256 0.900000 0.014659
3.511446 0.036585 -0.014662 -0.000315 0.900000 0.014665
3.616265 0.036585 -0.014327 -0.000271 0.900000 0.014329
3.721084 0.036585 -0.014196 -0.000150 0.900000 0.014197
3.825904 0.036585 -0.014700 -0.000004 0.900000 0.014700
3.930723 0.036585 -0.015724 0.000026 0.900000 0.015724
4.035542 0.036585 -0.016444 -0.000135 0.900000 0.016444
4.140361 0.036585 -0.016079 -0.000304 0.900000 0.016082
4.245181 0.036585 -0.014672 -0.000347 0.900000 0.014676
4.350000 0.036585 -0.012843 -0.000268 0.900000 0.012846
4.454819 0.036585 -0.011241 -0.000104 0.900000 0.011242
4.559639 0.036585 -0.010255 0.000067 0.900000 0.010255
4.664458 0.036585 -0.009747 0.000114 0.900000 0.009748
4.769277 0.036585 -0.008904 -0.000035 0.900000 0.008904
4.874096 0.036585 -0.006999 -0.000191 0.900000 0.007002
4.978916 0.036585 -0.004175 -0.000227 0.900000 0.004181
5.083735 0.036585 -0.001078 -0.000172 0.900000 0.001092
5.188554 0.036585 0.001692 -0.000050 0.900000 0.001693
5.293373 0.036585 0.003690 0.000092 0.900000 0.003691
5.398193 0.036585 0.004896 0.000132 0.900000 0.004897
5.503012 0.036585 0.006010 -0.000022 0.900000 0.006010
5.607831 0.036585 0.007758 -0.000193 0.900000 0.007761
5.712651 0.036585 0.010055 -0.000219 0.900000 0.010057
5.817470 0.036585 0.012395 -0.000163 0.900000 0.012396
5.922289 0.036585 0.014414 -0.000062 0.900000 0.014414
6.027108 0.036585 0.015900 0.000041 0.900000 0.015900
6.131928 0.036585 0.016947 0.000063 0.900000 0.016947
6.236747 0.036585 0.018044 -0.000030 0.900000 0.018044
6.341566 0.036585 0.019619 -0.000127 0.900000 0.019619
6.446386 0.036585 0.021620 -0.000155 0.900000 0.021620
6.551205 0.036585 0.023763 -0.000144 0.900000 0.023763
6.656024 0.036585 0.025805 -0.000109 0.900000 0.025805
6.760843 0.036585 0.027485 -0.000022 0.900000 0.027485
6.865663 0.036585 0.028745 0.000016 0.900000 0.028745
6.970482 0.036585 0.029882 -0.000018 0.900000 0.029882
7.075301 0.036585 0.031153 -0.000047 0.900000 0.031153
7.180120 0.036585 0.032515 -0.000029 0.900000 0.032515
7.284940 0.036585 0.033809 -0.000000 0.900000 0.033809
7.389759 0.036585 0.035021 -0.000020 0.900000 0.035021
7.494578 0.036585 0.036146 -0.000019 0.900000 0.036146
7.599398 0.036585 0.037061 0.000000 0.900000 0.037061
7.704217 0.036585 0.037700 0.000011 0.900000 0.037700
7.809036 0.036585 0.038077 0.000034 0.900000 0.038077
7.913855 0.036585 0.037915 0.000118 0.900000 0.037915
8.018675 0.036585 0.036697 0.000236 0.900000 0.036698
8.123494 0.036585 0.034533 0.000258 0.900000 0.034534
8.228313 0.036585 0.031091 0.000393 0.900000 0.031094
8.333133 0.036585 0.025332 0.000687 0.900000 0.025341
8.437952 0.036585 0.016816 0.001038 0.900000 0.016848
8.542771 0.036585 0.005926 0.001295 0.900000 0.006066
8.647590 0.036585 0.000000 0.000000 0.000000 0.000000
0.052410 0.051220 0.000000 0.000000 0.000000 0.000000
0.157229 0.051220 -0.001979 -0.000233 0.900000 0.001993
0.262048 0.051220 -0.005909 -0.000248 0.900000 0.005914
0.366867 0.051220 -0.009569 -0.000296 0.900000 0.009574
0.471687 0.051220 -0.012650 -0.000383 0.900000 0.012656
0.576506 0.051220 -0.015003 -0.000523 0.900000 0.015012
0.681325 0.051220 -0.016747 -0.000738 0.900000 0.016763
0.786145 0.051220 -0.018087 -0.000708 0.900000 0.018101
0.890964 0.051220 -0.019129 -0.000672 0.900000 0.019141
0.995783 0.051220 -0.019868 -0.000710 0.900000 0.019881
1.100602 0.051220 -0.020041 -0.000863 0.900000 0.020060
1.205422 0.051220 -0.019488 -0.000989 0.900000 0.019513
1.310241 0.051220 -0.018397 -0.001011 0.900000 0.018425
1.415060 0.051220 -0.017055 -0.000952 0.900000 0.017081
1.519880 0.051220 -0.015754 -0.000826 0.900000 0.015776
1.624699 0.051220 -0.014785 -0.000668 0.900000 0.014800
1.729518 0.051220 -0.014184 -0.000586 0.900000 0.014196
1.834337 0.051220 -0.013650 -0.000670 0.900000 0.013667
1.939157 0.051220 -0.012844 -0.000789 0.900000 0.012869
2.043976 0.051220 -0.011750 -0.000818 0.900000 0.011778
2.148795 0.051220 -0.010633 -0.000738 0.900000 0.010659
2.253614 0.051220 -0.009850 -0.000563 0.900000 0.009866
2.358434 0.051220 -0.009706 -0.000346 0.900000 0.009713
2.463253 0.051220 -0.010200 -0.000243 0.900000 0.010203
2.568072 0.051220 -0.010829 -0.000374 0.900000 0.010836
2.672892 0.051220 -0.011037 -0.000568 0.900000 0.011051
2.777711 0.051220 -0.010764 -0.000654 0.900000 0.010784
2.882530 0.051220 -0.010352 -0.000605 0.900000 0.010370
2.987349 0.051220 -0.010271 -0.000430 0.900000 0.010280
3.092169 0.051220 -0.010935 -0.000194 0.900000 0.010937
3.196988 0.051220 -0.012327 -0.000118 0.900000 0.012328
3.301807 0.051220 -0.013775 -0.000320 0.900000 0.013779
3.406627 0.051220 -0.014577 -0.000579 0.900000 0.014588
3.511446 0.051220 -0.014664 -0.000689 0.900000 0.014680
3.616265 0.051220 -0.014413 -0.000631 0.900000 0.014426
3.721084 0.051220 -0.014307 -0.000444 0.900000 0.014314
3.825904 0.051220 -0.014744 -0.000207 0.900000 0.014746
3.930723 0.051220 -0.015654 -0.000151 0.900000 0.015655
4.035542 0.051220 -0.016303 -0.000405 0.900000 0.016308
4.140361 0.051220 -0.015971 -0.000685 0.900000 0.015986
4.245181 0.051220 -0.014673 -0.000771 0.900000 0.014693
4.350000 0.051220 -0.012949 -0.000661 0.900000 0.012966
4.454819 0.051220 -0.011373 -0.000401 0.900000 0.011380
4.559639 0.051220 -0.010315 -0.000115 0.900000 0.010316
4.664458 0.051220 -0.009696 -0.000017 0.900000 0.009696
4.769277 0.051220 -0.008801 -0.000241 0.900000 0.008804
4.874096 0.051220 -0.006946 -0.000490 0.900000 0.006963
4.978916 0.051220 -0.004230 -0.000554 0.900000 0.004266
5.083735 0.051220 -0.001229 -0.000471 0.900000 0.001317
5.188554 0.051220 0.001510 -0.000275 0.900000 0.001535
5.293373 0.051220 0.003561 -0.000035 0.900000 0.003561
5.398193 0.051220 0.004858 0.000052 0.900000 0.004859
5.503012 0.051220 0.006023 -0.000178 0.900000 0.006025
5.607831 0.051220 0.007747 -0.000450 0.900000 0.007760
5.712651 0.051220 0.009973 -0.000492 0.900000 0.009985
5.817470 0.051220 0.012246 -0.000406 0.900000 0.012253
5.922289 0.051220 0.014247 -0.000240 0.900000 0.014249
6.027108 0.051220 0.015775 -0.000065 0.900000 0.015775
6.131928 0.051220 0.016892 -0.000014 0.900000 0.016892
6.236747 0.051220 0.018025 -0.000151 0.900000 0.018026
6.341566 0.051220 0.019574 -0.000303 0.900000 0.019576
6.446386 0.051220 0.021513 -0.000349 0.900000 0.021516
6.551205 0.051220 0.023607 -0.000334 0.900000 0.023609
6.656024 0.051220 0.025645 -0.000276 0.900000 0.025647
6.760843 0.051220 0.027367 -0.000127 0.900000 0.027368
6.865663 0.051220 0.028683 -0.000053 0.900000 0.028683
6.970482 0.051220 0.029847 -0.000095 0.900000 0.029847
7.075301 0.051220 0.031100 -0.000135 0.900000 0.031100
7.180120 0.051220 0.032415 -0.000104 0.900000 0.032416
7.284940 0.051220 0.033667 -0.000059 0.900000 0.033667
7.389759 0.051220 0.034873 -0.000095 0.900000 0.034873
7.494578 0.051220 0.036034 -0.000092 0.900000 0.036034
7.599398 0.051220 0.036992 -0.000052 0.900000 0.036992
7.704217 0.051220 0.037643 -0.000023 0.900000 0.037643
7.809036 0.051220 0.037994 0.000018 0.900000 0.037994
7.913855 0.051220 0.037793 0.000150 0.900000 0.037793
8.018675 0.051220 0.036582 0.000331 0.900000 0.036584
8.123494 0.051220 0.034468 0.000417 0.900000 0.034470
8.228313 0.051220 0.031062 0.000653 0.900000 0.031069
8.333133 0.051220 0.025324 0.001145 0.900000 0.025349
8.437952 0.051220 0.016813 0.001732 0.900000 0.016902
8.542771 0.051220 0.005923 0.002158 0.900000 0.006304
8.647590 0.051220 0.000000 0.000000 0.000000 0.000000
0.052410 0.065854 0.000000 0.000000 0.000000 0.000000
0.157229 0.065854 -0.001978 -0.000325 0.900000 0.002004
0.262048 0.065854 -0.005902 -0.000347 0.900000 0.005912
0.366867 0.065854 -0.009545 -0.000419 0.900000 0.009555
0.471687 0.065854 -0.012602 -0.000545 0.900000 0.012614
0.576506 0.065854 -0.014955 -0.000742 0.900000 0.014974
0.681325 0.065854 -0.016749 -0.001022 0.900000 0.016781
0.786145 0.065854 -0.018131 -0.001000 0.900000 0.018159
0.890964 0.065854 -0.019161 -0.000960 0.900000 0.019185
0.995783 0.065854 -0.019860 -0.001018 0.900000 0.019886
1.100602 0.065854 -0.019998 -0.001227 0.900000 0.020036
1.205422 0.065854 -0.019438 -0.001398 0.900000 0.019488
1.310241 0.065854 -0.018368 -0.001428 0.900000 0.018424
1.415060 0.065854 -0.017054 -0.001352 0.900000 0.017108
1.519880 0.065854 -0.015762 -0.001186 0.900000 0.015807
1.624699 0.065854 -0.014767 -0.000975 0.900000 0.014799
1.729518 0.065854 -0.014122 -0.000861 0.900000 0.014148
1.834337 0.065854 -0.013561 -0.000969 0.900000 0.013595
1.939157 0.065854 -0.012766 -0.001127 0.900000 0.012816
2.043976 0.065854 -0.011716 -0.001167 0.900000 0.011774
2.148795 0.065854 -0.010645 -0.001064 0.900000 0.010698
2.253614 0.065854 -0.009877 -0.000832 0.900000 0.009912
2.358434 0.065854 -0.009702 -0.000541 0.900000 0.009717
2.463253 0.065854 -0.010138 -0.000396 0.900000 0.010146
2.568072 0.065854 -0.010735 -0.000565 0.900000 0.010750
2.672892 0.065854 -0.010964 -0.000824 0.900000 0.010995
2.777711 0.065854 -0.010756 -0.000945 0.900000 0.010797
2.882530 0.065854 -0.010409 -0.000888 0.900000 0.010447
2.987349 0.065854 -0.010349 -0.000662 0.900000 0.010370
3.092169 0.065854 -0.010969 -0.000346 0.900000 0.010974
3.196988 0.065854 -0.012283 -0.000237 0.900000 0.012285
3.301807 0.065854 -0.013683 -0.000500 0.900000 0.013692
3.406627 0.065854 -0.014504 -0.000845 0.900000 0.014528
3.511446 0.065854 -0.014661 -0.000998 0.900000 0.014695
3.616265 0.065854 -0.014478 -0.000930 0.900000 0.014508
3.721084 0.065854 -0.014387 -0.000688 0.900000 0.014404
3.825904 0.065854 -0.014765 -0.000373 0.900000 0.014770
3.930723 0.065854 -0.015579 -0.000290 0.900000 0.015582
4.035542 0.065854 -0.016174 -0.000623 0.900000 0.016186
4.140361 0.065854 -0.015871 -0.000994 0.900000 0.015903
4.245181 0.065854 -0.014666 -0.001114 0.900000 0.014708
4.350000 0.065854 -0.013029 -0.000979 0.900000 0.013066
4.454819 0.065854 -0.011471 -0.000640 0.900000 0.011488
4.559639 0.065854 -0.010347 -0.000253 0.900000 0.010350
4.664458 0.065854 -0.009637 -0.000106 0.900000 0.009638
4.769277 0.065854 -0.008705 -0.000391 0.900000 0.008714
4.874096 0.065854 -0.006896 -0.000719 0.900000 0.006933
4.978916 0.065854 -0.004275 -0.000809 0.900000 0.004351
5.083735 0.065854 -0.001358 -0.000707 0.900000 0.001531
5.188554 0.065854 0.001359 -0.000451 0.900000 0.001432
5.293373 0.065854 0.003457 -0.000128 0.900000 0.003460
5.398193 0.065854 0.004830 0.000004 0.900000 0.004830
5.503012 0.065854 0.006030 -0.000292 0.900000 0.006037
5.607831 0.065854 0.007733 -0.000658 0.900000 0.007761
5.712651 0.065854 0.009901 -0.000713 0.900000 0.009926
5.817470 0.065854 0.012116 -0.000601 0.900000 0.012131
5.922289 0.065854 0.014103 -0.000382 0.900000 0.014108
6.027108 0.065854 0.015669 -0.000145 0.900000 0.015669
6.131928 0.065854 0.016843 -0.000067 0.900000 0.016843
6.236747 0.065854 0.018004 -0.000241 0.900000 0.018005
6.341566 0.065854 0.019528 -0.000439 0.900000 0.019532
6.446386 0.065854 0.021411 -0.000502 0.900000 0.021417
6.551205 0.065854 0.023460 -0.000490 0.900000 0.023465
6.656024 0.065854 0.025501 -0.000421 0.900000 0.025505
6.760843 0.065854 0.027265 -0.000215 0.900000 0.027265
6.865663 0.065854 0.028627 -0.000105 0.900000 0.028627
6.970482 0.065854 0.029814 -0.000150 0.900000 0.029814
7.075301 0.065854 0.031048 -0.000195 0.900000 0.031049
7.180120 0.065854 0.032321 -0.000150 0.900000 0.032321
7.284940 0.065854 0.033530 -0.000092 0.900000 0.033530
7.389759 0.065854 0.034732 -0.000156 0.900000 0.034732
7.494578 0.065854 0.035931 -0.000156 0.900000 0.035931
7.599398 0.065854 0.036933 -0.000093 0.900000 0.036934
7.704217 0.065854 0.037596 -0.000039 0.900000 0.037596
7.809036 0.065854 0.037925 0.000023 0.900000 0.037925
7.913855 0.065854 0.037692 0.000207 0.900000 0.037692
8.018675 0.065854 0.036484 0.000455 0.900000 0.036487
8.123494 0.065854 0.034411 0.000572 0.900000 0.034416
8.228313 0.065854 0.031053 0.000907 0.900000 0.031066
8.333133 0.065854 0.025346 0.001603 0.900000 0.025396
8.437952 0.065854 0.016839 0.002430 0.900000 0.017013
8.542771 0.065854 0.005933 0.003025 0.900000 0.006660
8.647590 0.065854 0.000000 0.000000 0.000000 0.000000
0.052410 0.080488 0.000000 0.000000 0.000000 0.000000
0.157229 0.080488 -0.001977 -0.000415 0.900000 0.002020
0.262048 0.080488 -0.005895 -0.000446 0.900000 0.005912
0.366867 0.080488 -0.009526 -0.000544 0.900000 0.009542
0.471687 0.080488 -0.012565 -0.000710 0.900000 0.012585
0.576506 0.080488 -0.014926 -0.000958 0.900000 0.014957
0.681325 0.080488 -0.016761 -0.001277 0.900000 0.016810
0.786145 0.080488 -0.018171 -0.001270 0.900000 0.018215
0.890964 0.080488 -0.019187 -0.001234 0.900000 0.019227
0.995783 0.080488 -0.019849 -0.001314 0.900000 0.019893
1.100602 0.080488 -0.019954 -0.001578 0.900000 0.020016
1.205422 0.080488 -0.019383 -0.001790 0.900000 0.019465
1.310241 0.080488 -0.018327 -0.001825 0.900000 0.018418
1.415060 0.080488 -0.017037 -0.001731 0.900000 0.017125
1.519880 0.080488 -0.015751 -0.001530 0.900000 0.015826
1.624699 0.080488 -0.014732 -0.001269 0.900000 0.014787
1.729518 0.080488 -0.014050 -0.001123 0.900000 0.014094
1.834337 0.080488 -0.013466 -0.001249 0.900000 0.013524
1.939157 0.080488 -0.012682 -0.001439 0.900000 0.012764
2.043976 0.080488 -0.011668 -0.001487 0.900000 0.011763
2.148795 0.080488 -0.010638 -0.001360 0.900000 0.010724
2.253614 0.080488 -0.009882 -0.001078 0.900000 0.009941
2.358434 0.080488 -0.009678 -0.000718 0.900000 0.009704
2.463253 0.080488 -0.010066 -0.000530 0.900000 0.010080
2.568072 0.080488 -0.010636 -0.000729 0.900000 0.010661
2.672892 0.080488 -0.010887 -0.001044 0.900000 0.010937
2.777711 0.080488 -0.010736 -0.001195 0.900000 0.010802
2.882530 0.080488 -0.010445 -0.001132 0.900000 0.010506
2.987349 0.080488 -0.010400 -0.000863 0.900000 0.010436
3.092169 0.080488 -0.010979 -0.000475 0.900000 0.010989
3.196988 0.080488 -0.012224 -0.000334 0.900000 0.012229
3.301807 0.080488 -0.013584 -0.000648 0.900000 0.013599
3.406627 0.080488 -0.014423 -0.001067 0.900000 0.014463
3.511446 0.080488 -0.014641 -0.001258 0.900000 0.014695
3.616265 0.080488 -0.014516 -0.001182 0.900000 0.014564
3.721084 0.080488 -0.014436 -0.000895 0.900000 0.014464
3.825904 0.080488 -0.014759 -0.000511 0.900000 0.014767
3.930723 0.080488 -0.015490 -0.000399 0.900000 0.015495
4.035542 0.080488 -0.016038 -0.000798 0.900000 0.016058
4.140361 0.080488 -0.015762 -0.001246 0.900000 0.015811
4.245181 0.080488 -0.014639 -0.001394 0.900000 0.014705
4.350000 0.080488 -0.013078 -0.001238 0.900000 0.013137
4.454819 0.080488 -0.011533 -0.000834 0.900000 0.011563
4.559639 0.080488 -0.010351 -0.000358 0.900000 0.010357
4.664458 0.080488 -0.009564 -0.000160 0.900000 0.009566
4.769277 0.080488 -0.008605 -0.000495 0.900000 0.008619
4.874096 0.080488 -0.006840 -0.000892 0.900000 0.006898
4.978916 0.080488 -0.004306 -0.001006 0.900000 0.004422
5.083735 0.080488 -0.001465 -0.000893 0.900000 0.001716
5.188554 0.080488 0.001231 -0.000590 0.900000 0.001365
5.293373 0.080488 0.003373 -0.000194 0.900000 0.003379
5.398193 0.080488 0.004809 -0.000018 0.900000 0.004809
5.503012 0.080488 0.006033 -0.000373 0.900000 0.006045
5.607831 0.080488 0.007718 -0.000827 0.900000 0.007762
5.712651 0.080488 0.009835 -0.000892 0.900000 0.009875
5.817470 0.080488 0.011998 -0.000760 0.900000 0.012022
5.922289 0.080488 0.013972 -0.000496 0.900000 0.013980
6.027108 0.080488 0.015571 -0.000206 0.900000 0.015572
6.131928 0.080488 0.016794 -0.000101 0.900000 0.016794
6.236747 0.080488 0.017976 -0.000304 0.900000 0.017978
6.341566 0.080488 0.019475 -0.000543 0.900000 0.019482
6.446386 0.080488 0.021304 -0.000622 0.900000 0.021313
6.551205 0.080488 0.023311 -0.000620 0.900000 0.023319
6.656024 0.080488 0.025358 -0.000552 0.900000 0.025364
6.760843 0.080488 0.027163 -0.000292 0.900000 0.027164
6.865663 0.080488 0.028567 -0.000146 0.900000 0.028567
6.970482 0.080488 0.029771 -0.000187 0.900000 0.029772
7.075301 0.080488 0.030987 -0.000232 0.900000 0.030988
7.180120 0.080488 0.032217 -0.000173 0.900000 0.032218
7.284940 0.080488 0.033383 -0.000104 0.900000 0.033383
7.389759 0.080488 0.034578 -0.000208 0.900000 0.034579
7.494578 0.080488 0.035820 -0.000216 0.900000 0.035821
7.599398 0.080488 0.036869 -0.000128 0.900000 0.036869
7.704217 0.080488 0.037543 -0.000041 0.900000 0.037543
7.809036 0.080488 0.037850 0.000046 0.900000 0.037850
7.913855 0.080488 0.037593 0.000283 0.900000 0.037594
8.018675 0.080488 0.036382 0.000600 0.900000 0.036387
8.123494 0.080488 0.034348 0.000720 0.900000 0.034355
8.228313 0.080488 0.031051 0.001153 0.900000 0.031072
8.333133 0.080488 0.025389 0.002058 0.900000 0.025472
8.437952 0.080488 0.016886 0.003133 0.900000 0.017175
8.542771 0.080488 0.005952 0.003898 0.900000 0.007115
8.647590 0.080488 0.000000 0.000000 0.000000 0.000000
0.052410 0.095122 0.000000 0.000000 0.000000 0.000000
0.157229 0.095122 -0.001976 -0.000504 0.900000 0.002040
0.262048 0.095122 -0.005893 -0.000544 0.900000 0.005918
0.366867 0.095122 -0.009516 -0.000669 0.900000 0.009539
0.471687 0.095122 -0.012542 -0.000877 0.900000 0.012573
0.576506 0.095122 -0.014916 -0.001169 0.900000 0.014962
0.681325 0.095122 -0.016787 -0.001511 0.900000 0.016854
0.786145 0.095122 -0.018215 -0.001526 0.900000 0.018279
0.890964 0.095122 -0.019218 -0.001500 0.900000 0.019276
0.995783 0.095122 -0.019845 -0.001604 0.900000 0.019909
1.100602 0.095122 -0.019915 -0.001922 0.900000 0.020007
1.205422 0.095122 -0.019328 -0.002171 0.900000 0.019449
1.310241 0.095122 -0.018283 -0.002207 0.900000 0.018416
1.415060 0.095122 -0.017013 -0.002096 0.900000 0.017142
1.519880 0.095122 -0.015733 -0.001864 0.900000 0.015843
1.624699 0.095122 -0.014692 -0.001558 0.900000 0.014775
1.729518 0.095122 -0.013976 -0.001377 0.900000 0.014043
1.834337 0.095122 -0.013372 -0.001516 0.900000 0.013458
1.939157 0.095122 -0.012597 -0.001732 0.900000 0.012715
2.043976 0.095122 -0.011616 -0.001784 0.900000 0.011752
2.148795 0.095122 -0.010620 -0.001635 0.900000 0.010746
2.253614 0.095122 -0.009876 -0.001307 0.900000 0.009963
2.358434 0.095122 -0.009645 -0.000884 0.900000 0.009686
2.463253 0.095122 -0.009990 -0.000651 0.900000 0.010011
2.568072 0.095122 -0.010539 -0.000873 0.900000 0.010575
2.672892 0.095122 -0.010809 -0.001234 0.900000 0.010879
2.777711 0.095122 -0.010710 -0.001412 0.900000 0.010803
2.882530 0.095122 -0.010470 -0.001346 0.900000 0.010556
2.987349 0.095122 -0.010438 -0.001042 0.900000 0.010490
3.092169 0.095122 -0.010977 -0.000589 0.900000 0.010993
3.196988 0.095122 -0.012162 -0.000414 0.900000 0.012169
3.301807 0.095122 -0.013486 -0.000770 0.900000 0.013507
3.406627 0.095122 -0.014341 -0.001255 0.900000 0.014396
3.511446 0.095122 -0.014613 -0.001480 0.900000 0.014688
3.616265 0.095122 -0.014541 -0.001399 0.900000 0.014608
3.721084 0.095122 -0.014470 -0.001075 0.900000 0.014510
3.825904 0.095122 -0.014741 -0.000628 0.900000 0.014754
3.930723 0.095122 -0.015398 -0.000486 0.900000 0.015406
4.035542 0.095122 -0.015903 -0.000940 0.900000 0.015930
4.140361 0.095122 -0.015650 -0.001452 0.900000 0.015717
4.245181 0.095122 -0.014601 -0.001622 0.900000 0.014691
4.350000 0.095122 -0.013111 -0.001451 0.900000 0.013191
4.454819 0.095122 -0.011578 -0.000993 0.900000 0.011621
4.559639 0.095122 -0.010342 -0.000438 0.900000 0.010351