TITLE="(Vx,Vy)"
VARIABLES=X,Y,Vx,Vy,Vm,V
ZONE T="T-Dummy" I=83, J=41, F=POINT
0.052410 0.007317 0.000000 0.000000 0.000000 0.000000
0.157229 0.007317 0.000000 0.000000 0.000000 0.000000
0.262048 0.007317 0.000000 0.000000 0.000000 0.000000
0.366867 0.007317 0.000000 0.000000 0.000000 0.000000
0.471687 0.007317 0.000000 0.000000 0.000000 0.000000
0.576506 0.007317 0.000000 0.000000 0.000000 0.000000
0.681325 0.007317 0.000000 0.000000 0.000000 0.000000
0.786145 0.007317 0.000000 0.000000 0.000000 0.000000
0.890964 0.007317 0.000000 0.000000 0.000000 0.000000
0.995783 0.007317 0.000000 0.000000 0.000000 0.000000
1.100602 0.007317 0.000000 0.000000 0.000000 0.000000
1.205422 0.007317 0.000000 0.000000 0.000000 0.000000
1.310241 0.007317 0.000000 0.000000 0.000000 0.000000
1.415060 0.007317 0.000000 0.000000 0.000000 0.000000
1.519880 0.007317 0.000000 0.000000 0.000000 0.000000
1.624699 0.007317 0.000000 0.000000 0.000000 0.000000
1.729518 0.007317 0.000000 0.000000 0.000000 0.000000
1.834337 0.007317 0.000000 0.000000 0.000000 0.000000
1.939157 0.007317 0.000000 0.000000 0.000000 0.000000
2.043976 0.007317 0.000000 0.000000 0.000000 0.000000
2.148795 0.007317 0.000000 0.000000 0.000000 0.000000
2.253614 0.007317 0.000000 0.000000 0.000000 0.000000
2.358434 0.007317 0.000000 0.000000 0.000000 0.000000
2.463253 0.007317 0.000000 0.000000 0.000000 0.000000
2.568072 0.007317 0.000000 0.000000 0.000000 0.000000
2.672892 0.007317 0.000000 0.000000 0.000000 0.000000
2.777711 0.007317 0.000000 0.000000 0.000000 0.000000
2.882530 0.007317 0.000000 0.000000 0.000000 0.000000
2.987349 0.007317 0.000000 0.000000 0.000000 0.000000
3.092169 0.007317 0.000000 0.000000 0.000000 0.000000
3.196988 0.007317 0.000000 0.000000 0.000000 0.000000
3.301807 0.007317 0.000000 0.000000 0.000000 0.000000
3.406627 0.007317 0.000000 0.000000 0.000000 0.000000
3.511446 0.007317 0.000000 0.000000 0.000000 0.000000
3.616265 0.007317 0.000000 0.000000 0.000000 0.000000
3.721084 0.007317 0.000000 0.000000 0.000000 0.000000
3.825904 0.007317 0.000000 0.000000 0.000000 0.000000
3.930723 0.007317 0.000000 0.000000 0.000000 0.000000
4.035542 0.007317 0.000000 0.000000 0.000000 0.000000
4.140361 0.007317 0.000000 0.000000 0.000000 0.000000
4.245181 0.007317 0.000000 0.000000 0.000000 0.000000
4.350000 0.007317 0.000000 0.000000 0.000000 0.000000
4.454819 0.007317 0.000000 0.000000 0.000000 0.000000
4.559639 0.007317 0.000000 0.000000 0.000000 0.000000
4.664458 0.007317 0.000000 0.000000 0.000000 0.000000
4.769277 0.007317 0.000000 0.000000 0.000000 0.000000
4.874096 0.007317 0.000000 0.000000 0.000000 0.000000
4.978916 0.007317 0.000000 0.000000 0.000000 0.000000
5.083735 0.007317 0.000000 0.000000 0.000000 0.000000
5.188554 0.007317 0.000000 0.000000 0.000000 0.000000
5.293373 0.007317 0.000000 0.000000 0.000000 0.000000
5.398193 0.007317 0.000000 0.000000 0.000000 0.000000
5.503012 0.007317 0.000000 0.000000 0.000000 0.000000
5.607831 0.007317 0.000000 0.000000 0.000000 0.000000
5.712651 0.007317 0.000000 0.000000 0.000000 0.000000
5.817470 0.007317 0.000000 0.000000 0.000000 0.000000
5.922289 0.007317 0.000000 0.000000 0.000000 0.000000
6.027108 0.007317 0.000000 0.000000 0.000000 0.000000
6.131928 0.007317 0.000000 0.000000 0.000000 0.000000
6.236747 0.007317 0.000000 0.000000 0.000000 0.000000
6.341566 0.007317 0.000000 0.000000 0.000000 0.000000
6.446386 0.007317 0.000000 0.000000 0.000000 0.000000
6.551205 0.007317 0.000000 0.000000 0.000000 0.000000
6.656024 0.007317 0.000000 0.000000 0.000000 0.000000
6.760843 0.007317 0.000000 0.000000 0.000000 0.000000
6.865663 0.007317 0.000000 0.000000 0.000000 0.000000
6.970482 0.007317 0.000000 0.000000 0.000000 0.000000
7.075301 0.007317 0.000000 0.000000 0.000000 0.000000
7.180120 0.007317 0.000000 0.000000 0.000000 0.000000
7.284940 0.007317 0.000000 0.000000 0.000000 0.000000
7.389759 0.007317 0.000000 0.000000 0.000000 0.000000
7.494578 0.007317 0.000000 0.000000 0.000000 0.000000
7.599398 0.007317 0.000000 0.000000 0.000000 0.000000
7.704217 0.007317 0.000000 0.000000 0.000000 0.000000
7.809036 0.007317 0.000000 0.000000 0.000000 0.000000
7.913855 0.007317 0.000000 0.000000 0.000000 0.000000
8.018675 0.007317 0.000000 0.000000 0.000000 0.000000
8.123494 0.007317 0.000000 0.000000 0.000000 0.000000
8.228313 0.007317 0.000000 0.000000 0.000000 0.000000
8.333133 0.007317 0.000000 0.000000 0.000000 0.000000
8.437952 0.007317 0.000000 0.000000 0.000000 0.000000
8.542771 0.007317 0.000000 0.000000 0.000000 0.000000
8.647590 0.007317 0.000000 0.000000 0.000000 0.000000
0.052410 0.021951 0.000000 0.000000 0.000000 0.000000
0.157229 0.021951 0.001890 -0.000051 0.900000 0.001890
0.262048 0.021951 0.004854 -0.000066 0.900000 0.004855
0.366867 0.021951 0.006523 -0.000084 0.900000 0.006524
0.471687 0.021951 0.007408 -0.000104 0.900000 0.007409
0.576506 0.021951 0.007686 -0.000121 0.900000 0.007687
0.681325 0.021951 0.008113 -0.000192 0.900000 0.008115
0.786145 0.021951 0.008624 -0.000170 0.900000 0.008625
0.890964 0.021951 0.008263 -0.000113 0.900000 0.008264
0.995783 0.021951 0.007060 -0.000059 0.900000 0.007060
1.100602 0.021951 0.005672 -0.000072 0.900000 0.005672
1.205422 0.021951 0.004991 -0.000147 0.900000 0.004993
1.310241 0.021951 0.005354 -0.000217 0.900000 0.005358
1.415060 0.021951 0.006410 -0.000248 0.900000 0.006415
1.519880 0.021951 0.007491 -0.000220 0.900000 0.007494
1.624699 0.021951 0.007784 -0.000129 0.900000 0.007785
1.729518 0.021951 0.006789 -0.000023 0.900000 0.006789
1.834337 0.021951 0.005146 -0.000023 0.900000 0.005146
1.939157 0.021951 0.004307 -0.000135 0.900000 0.004309
2.043976 0.021951 0.004945 -0.000246 0.900000 0.004951
2.148795 0.021951 0.006521 -0.000290 0.900000 0.006527
2.253614 0.021951 0.007957 -0.000244 0.900000 0.007961
2.358434 0.021951 0.008092 -0.000108 0.900000 0.008093
2.463253 0.021951 0.006299 0.000045 0.900000 0.006299
2.568072 0.021951 0.003581 0.000044 0.900000 0.003581
2.672892 0.021951 0.002044 -0.000113 0.900000 0.002047
2.777711 0.021951 0.002625 -0.000265 0.900000 0.002639
2.882530 0.021951 0.004581 -0.000325 0.900000 0.004592
2.987349 0.021951 0.006490 -0.000266 0.900000 0.006495
3.092169 0.021951 0.006851 -0.000093 0.900000 0.006852
3.196988 0.021951 0.004875 0.000097 0.900000 0.004876
3.301807 0.021951 0.001866 0.000088 0.900000 0.001868
3.406627 0.021951 0.000386 -0.000104 0.900000 0.000399
3.511446 0.021951 0.001345 -0.000266 0.900000 0.001371
3.616265 0.021951 0.003717 -0.000322 0.900000 0.003731
3.721084 0.021951 0.005928 -0.000251 0.900000 0.005934
3.825904 0.021951 0.006384 -0.000059 0.900000 0.006384
3.930723 0.021951 0.004291 0.000147 0.900000 0.004294
4.035542 0.021951 0.001201 0.000124 0.900000 0.001207
4.140361 0.021951 0.000059 -0.000103 0.900000 0.000119
4.245181 0.021951 0.001958 -0.000303 0.900000 0.001981
4.350000 0.021951 0.005675 -0.000370 0.900000 0.005687
4.454819 0.021951 0.009186 -0.000270 0.900000 0.009190
4.559639 0.021951 0.010640 -0.000045 0.900000 0.010640
4.664458 0.021951 0.009339 0.000178 0.900000 0.009341
4.769277 0.021951 0.007014 0.000158 0.900000 0.007016
4.874096 0.021951 0.006600 -0.000061 0.900000 0.006601
4.978916 0.021951 0.008961 -0.000238 0.900000 0.008964
5.083735 0.021951 0.012770 -0.000293 0.900000 0.012773
5.188554 0.021951 0.016297 -0.000220 0.900000 0.016298
5.293373 0.021951 0.018055 -0.000045 0.900000 0.018055
5.398193 0.021951 0.017407 0.000136 0.900000 0.017407
5.503012 0.021951 0.015674 0.000130 0.900000 0.015675
5.607831 0.021951 0.015219 -0.000037 0.900000 0.015219
5.712651 0.021951 0.016801 -0.000174 0.900000 0.016802
5.817470 0.021951 0.019411 -0.000212 0.900000 0.019412
5.922289 0.021951 0.021770 -0.000158 0.900000 0.021771
6.027108 0.021951 0.022896 -0.000036 0.900000 0.022896
6.131928 0.021951 0.022425 0.000085 0.900000 0.022425
6.236747 0.021951 0.021279 0.000082 0.900000 0.021279
6.341566 0.021951 0.021040 -0.000030 0.900000 0.021041
6.446386 0.021951 0.022218 -0.000125 0.900000 0.022218
6.551205 0.021951 0.024099 -0.000150 0.900000 0.024099
6.656024 0.021951 0.025789 -0.000115 0.900000 0.025789
6.760843 0.021951 0.026727 -0.000053 0.900000 0.026727
6.865663 0.021951 0.026666 0.000025 0.900000 0.026666
6.970482 0.021951 0.026043 0.000032 0.900000 0.026043
7.075301 0.021951 0.025800 -0.000029 0.900000 0.025800
7.180120 0.021951 0.026236 -0.000076 0.900000 0.026236
7.284940 0.021951 0.026944 -0.000085 0.900000 0.026944
7.389759 0.021951 0.027430 -0.000057 0.900000 0.027430
7.494578 0.021951 0.027398 -0.000013 0.900000 0.027398
7.599398 0.021951 0.026975 -0.000000 0.900000 0.026975
7.704217 0.021951 0.026513 -0.000004 0.900000 0.026513
7.809036 0.021951 0.026298 -0.000032 0.900000 0.026298
7.913855 0.021951 0.026379 -0.000061 0.900000 0.026379
8.018675 0.021951 0.026427 -0.000060 0.900000 0.026427
8.123494 0.021951 0.025598 0.000024 0.900000 0.025598
8.228313 0.021951 0.023568 0.000050 0.900000 0.023568
8.333133 0.021951 0.020248 0.000117 0.900000 0.020249
8.437952 0.021951 0.014573 0.000257 0.900000 0.014576
8.542771 0.021951 0.005487 0.000389 0.900000 0.005500
8.647590 0.021951 0.000000 0.000000 0.000000 0.000000
0.052410 0.036585 0.000000 0.000000 0.000000 0.000000
0.157229 0.036585 0.001856 -0.000148 0.900000 0.001862
0.262048 0.036585 0.004794 -0.000199 0.900000 0.004798
0.366867 0.036585 0.006495 -0.000255 0.900000 0.006500
0.471687 0.036585 0.007477 -0.000321 0.900000 0.007484
0.576506 0.036585 0.008492 -0.000453 0.900000 0.008504
0.681325 0.036585 0.008959 -0.000439 0.900000 0.008969
0.786145 0.036585 0.008263 -0.000377 0.900000 0.008272
0.890964 0.036585 0.007273 -0.000286 0.900000 0.007279
0.995783 0.036585 0.006371 -0.000181 0.900000 0.006373
1.100602 0.036585 0.005731 -0.000229 0.900000 0.005735
1.205422 0.036585 0.005556 -0.000406 0.900000 0.005571
1.310241 0.036585 0.005771 -0.000560 0.900000 0.005798
1.415060 0.036585 0.006132 -0.000618 0.900000 0.006163
1.519880 0.036585 0.006416 -0.000546 0.900000 0.006440
1.624699 0.036585 0.006398 -0.000330 0.900000 0.006407
1.729518 0.036585 0.005976 -0.000082 0.900000 0.005976
1.834337 0.036585 0.005462 -0.000089 0.900000 0.005462
1.939157 0.036585 0.005350 -0.000354 0.900000 0.005362
2.043976 0.036585 0.005712 -0.000601 0.900000 0.005744
2.148795 0.036585 0.006206 -0.000687 0.900000 0.006244
2.253614 0.036585 0.006448 -0.000567 0.900000 0.006473
2.358434 0.036585 0.006119 -0.000242 0.900000 0.006124
2.463253 0.036585 0.005117 0.000116 0.900000 0.005118
2.568072 0.036585 0.003930 0.000107 0.900000 0.003931
2.672892 0.036585 0.003318 -0.000261 0.900000 0.003328
2.777711 0.036585 0.003436 -0.000601 0.900000 0.003488
2.882530 0.036585 0.003871 -0.000725 0.900000 0.003939
2.987349 0.036585 0.004158 -0.000577 0.900000 0.004198
3.092169 0.036585 0.003885 -0.000168 0.900000 0.003888
3.196988 0.036585 0.002886 0.000273 0.900000 0.002898
3.301807 0.036585 0.001748 0.000236 0.900000 0.001764
3.406627 0.036585 0.001377 -0.000217 0.900000 0.001394
3.511446 0.036585 0.001847 -0.000581 0.900000 0.001936
3.616265 0.036585 0.002598 -0.000694 0.900000 0.002689
3.721084 0.036585 0.003127 -0.000520 0.900000 0.003170
3.825904 0.036585 0.003044 -0.000072 0.900000 0.003045
3.930723 0.036585 0.002236 0.000402 0.900000 0.002272
4.035542 0.036585 0.001423 0.000327 0.900000 0.001460
4.140361 0.036585 0.001625 -0.000209 0.900000 0.001638
4.245181 0.036585 0.002919 -0.000655 0.900000 0.002991
4.350000 0.036585 0.004658 -0.000787 0.900000 0.004724
4.454819 0.036585 0.006213 -0.000548 0.900000 0.006237
4.559639 0.036585 0.007094 -0.000023 0.900000 0.007094
4.664458 0.036585 0.007123 0.000497 0.900000 0.007141
4.769277 0.036585 0.006999 0.000437 0.900000 0.007013
4.874096 0.036585 0.007780 -0.000084 0.900000 0.007781
4.978916 0.036585 0.009541 -0.000485 0.900000 0.009554
5.083735 0.036585 0.011618 -0.000606 0.900000 0.011633
5.188554 0.036585 0.013458 -0.000440 0.900000 0.013465
5.293373 0.036585 0.014650 -0.000038 0.900000 0.014650
5.398193 0.036585 0.014993 0.000379 0.900000 0.014998
5.503012 0.036585 0.015028 0.000349 0.900000 0.015032
5.607831 0.036585 0.015645 -0.000053 0.900000 0.015645
5.712651 0.036585 0.016959 -0.000369 0.900000 0.016963
5.817470 0.036585 0.018439 -0.000448 0.900000 0.018444
5.922289 0.036585 0.019682 -0.000326 0.900000 0.019685
6.027108 0.036585 0.020493 -0.000049 0.900000 0.020494
6.131928 0.036585 0.020812 0.000228 0.900000 0.020813
6.236747 0.036585 0.020966 0.000216 0.900000 0.020967
6.341566 0.036585 0.021461 -0.000046 0.900000 0.021461
6.446386 0.036585 0.022360 -0.000259 0.900000 0.022362
6.551205 0.036585 0.023381 -0.000319 0.900000 0.023383
6.656024 0.036585 0.024321 -0.000252 0.900000 0.024323
6.760843 0.036585 0.025121 -0.000129 0.900000 0.025121
6.865663 0.036585 0.025660 0.000049 0.900000 0.025660
6.970482 0.036585 0.025958 0.000067 0.900000 0.025958
7.075301 0.036585 0.026257 -0.000065 0.900000 0.026257
7.180120 0.036585 0.026572 -0.000162 0.900000 0.026572
7.284940 0.036585 0.026758 -0.000175 0.900000 0.026759
7.389759 0.036585 0.026761 -0.000110 0.900000 0.026761
7.494578 0.036585 0.026646 -0.000024 0.900000 0.026646
7.599398 0.036585 0.026629 -0.000022 0.900000 0.026629
7.704217 0.036585 0.026781 -0.000033 0.900000 0.026781
7.809036 0.036585 0.026956 -0.000088 0.900000 0.026956
7.913855 0.036585 0.026830 -0.000114 0.900000 0.026830
8.018675 0.036585 0.026005 -0.000056 0.900000 0.026005
8.123494 0.036585 0.025020 0.000020 0.900000 0.025020
8.228313 0.036585 0.023464 0.000145 0.900000 0.023465
8.333133 0.036585 0.020214 0.000349 0.900000 0.020217
8.437952 0.036585 0.014560 0.000771 0.900000 0.014580
8.542771 0.036585 0.005482 0.001168 0.900000 0.005605
8.647590 0.036585 0.000000 0.000000 0.000000 0.000000
0.052410 0.051220 0.000000 0.000000 0.000000 0.000000
0.157229 0.051220 0.001816 -0.000237 0.900000 0.001832
0.262048 0.051220 0.004718 -0.000335 0.900000 0.004730
0.366867 0.051220 0.006439 -0.000431 0.900000 0.006453
0.471687 0.051220 0.007473 -0.000552 0.900000 0.007494
0.576506 0.051220 0.008252 -0.000834 0.900000 0.008294
0.681325 0.051220 0.008517 -0.000574 0.900000 0.008536
0.786145 0.051220 0.007986 -0.000474 0.900000 0.008000
0.890964 0.051220 0.007107 -0.000412 0.900000 0.007119
0.995783 0.051220 0.006223 -0.000313 0.900000 0.006231
1.100602 0.051220 0.005580 -0.000403 0.900000 0.005594
1.205422 0.051220 0.005408 -0.000640 0.900000 0.005445
1.310241 0.051220 0.005644 -0.000822 0.900000 0.005703
1.415060 0.051220 0.006036 -0.000874 0.900000 0.006099
1.519880 0.051220 0.006354 -0.000765 0.900000 0.006400
1.624699 0.051220 0.006360 -0.000479 0.900000 0.006378
1.729518 0.051220 0.005934 -0.000159 0.900000 0.005936
1.834337 0.051220 0.005392 -0.000183 0.900000 0.005395
1.939157 0.051220 0.005259 -0.000531 0.900000 0.005286
2.043976 0.051220 0.005627 -0.000831 0.900000 0.005688
2.148795 0.051220 0.006153 -0.000912 0.900000 0.006220
2.253614 0.051220 0.006438 -0.000735 0.900000 0.006480
2.358434 0.051220 0.006139 -0.000302 0.900000 0.006146
2.463253 0.051220 0.005129 0.000164 0.900000 0.005131
2.568072 0.051220 0.003900 0.000137 0.900000 0.003902
2.672892 0.051220 0.003252 -0.000346 0.900000 0.003270
2.777711 0.051220 0.003369 -0.000762 0.900000 0.003454
2.882530 0.051220 0.003841 -0.000892 0.900000 0.003943
2.987349 0.051220 0.004180 -0.000683 0.900000 0.004236
3.092169 0.051220 0.003941 -0.000145 0.900000 0.003944
3.196988 0.051220 0.002928 0.000424 0.900000 0.002958
3.301807 0.051220 0.001740 0.000348 0.900000 0.001774
3.406627 0.051220 0.001330 -0.000254 0.900000 0.001354
3.511446 0.051220 0.001799 -0.000701 0.900000 0.001930
3.616265 0.051220 0.002585 -0.000813 0.900000 0.002710
3.721084 0.051220 0.003166 -0.000571 0.900000 0.003217
3.825904 0.051220 0.003115 0.000008 0.900000 0.003115
3.930723 0.051220 0.002289 0.000608 0.900000 0.002368
4.035542 0.051220 0.001417 0.000471 0.900000 0.001494
4.140361 0.051220 0.001570 -0.000234 0.900000 0.001587
4.245181 0.051220 0.002859 -0.000776 0.900000 0.002962
4.350000 0.051220 0.004643 -0.000907 0.900000 0.004730
4.454819 0.051220 0.006254 -0.000582 0.900000 0.006281
4.559639 0.051220 0.007160 0.000097 0.900000 0.007160
4.664458 0.051220 0.007161 0.000771 0.900000 0.007202
4.769277 0.051220 0.006974 0.000668 0.900000 0.007006
4.874096 0.051220 0.007709 -0.000024 0.900000 0.007709
4.978916 0.051220 0.009465 -0.000526 0.900000 0.009479
5.083735 0.051220 0.011570 -0.000667 0.900000 0.011589
5.188554 0.051220 0.013451 -0.000454 0.900000 0.013459
5.293373 0.051220 0.014666 0.000056 0.900000 0.014666
5.398193 0.051220 0.014995 0.000588 0.900000 0.015006
5.503012 0.051220 0.014983 0.000521 0.900000 0.014992
5.607831 0.051220 0.015563 -0.000023 0.900000 0.015563
5.712651 0.051220 0.016875 -0.000426 0.900000 0.016881
5.817470 0.051220 0.018377 -0.000513 0.900000 0.018384
5.922289 0.051220 0.019650 -0.000355 0.900000 0.019653
6.027108 0.051220 0.020481 -0.000010 0.900000 0.020481
6.131928 0.051220 0.020791 0.000337 0.900000 0.020794
6.236747 0.051220 0.020913 0.000312 0.900000 0.020916
6.341566 0.051220 0.021380 -0.000027 0.900000 0.021380
6.446386 0.051220 0.022274 -0.000290 0.900000 0.022276
6.551205 0.051220 0.023308 -0.000369 0.900000 0.023311
6.656024 0.051220 0.024266 -0.000301 0.900000 0.024268
6.760843 0.051220 0.025087 -0.000180 0.900000 0.025087
6.865663 0.051220 0.025633 0.000042 0.900000 0.025633
6.970482 0.051220 0.025914 0.000070 0.900000 0.025914
7.075301 0.051220 0.026194 -0.000087 0.900000 0.026194
7.180120 0.051220 0.026504 -0.000189 0.900000 0.026504
7.284940 0.051220 0.026700 -0.000192 0.900000 0.026701
7.389759 0.051220 0.026722 -0.000111 0.900000 0.026723
7.494578 0.051220 0.026621 -0.000025 0.900000 0.026621
7.599398 0.051220 0.026617 -0.000072 0.900000 0.026617
7.704217 0.051220 0.026775 -0.000091 0.900000 0.026775
7.809036 0.051220 0.026943 -0.000141 0.900000 0.026943
7.913855 0.051220 0.026832 -0.000109 0.900000 0.026832
8.018675 0.051220 0.026152 0.000045 0.900000 0.026152
8.123494 0.051220 0.025153 -0.000013 0.900000 0.025153
8.228313 0.051220 0.023453 0.000235 0.900000 0.023454
8.333133 0.051220 0.020217 0.000577 0.900000 0.020225
8.437952 0.051220 0.014585 0.001286 0.900000 0.014641
8.542771 0.051220 0.005496 0.001952 0.900000 0.005832
8.647590 0.051220 0.000000 0.000000 0.000000 0.000000
0.052410 0.065854 0.000000 0.000000 0.000000 0.000000
0.157229 0.065854 0.001772 -0.000317 0.900000 0.001800
0.262048 0.065854 0.004632 -0.000473 0.900000 0.004657
0.366867 0.065854 0.006367 -0.000611 0.900000 0.006396
0.471687 0.065854 0.007424 -0.000788 0.900000 0.007466
0.576506 0.065854 0.008029 -0.001148 0.900000 0.008111
0.681325 0.065854 0.008140 -0.000749 0.900000 0.008174
0.786145 0.065854 0.007711 -0.000607 0.900000 0.007734
0.890964 0.065854 0.006924 -0.000553 0.900000 0.006946
0.995783 0.065854 0.006066 -0.000455 0.900000 0.006083
1.100602 0.065854 0.005433 -0.000589 0.900000 0.005465
1.205422 0.065854 0.005273 -0.000889 0.900000 0.005347
1.310241 0.065854 0.005527 -0.001102 0.900000 0.005636
1.415060 0.065854 0.005940 -0.001147 0.900000 0.006049
1.519880 0.065854 0.006281 -0.001000 0.900000 0.006360
1.624699 0.065854 0.006309 -0.000641 0.900000 0.006341
1.729518 0.065854 0.005888 -0.000246 0.900000 0.005893
1.834337 0.065854 0.005332 -0.000290 0.900000 0.005340
1.939157 0.065854 0.005187 -0.000727 0.900000 0.005238
2.043976 0.065854 0.005558 -0.001085 0.900000 0.005662
2.148795 0.065854 0.006099 -0.001162 0.900000 0.006209
2.253614 0.065854 0.006412 -0.000926 0.900000 0.006478
2.358434 0.065854 0.006143 -0.000380 0.900000 0.006154
2.463253 0.065854 0.005138 0.000198 0.900000 0.005142
2.568072 0.065854 0.003884 0.000150 0.900000 0.003887
2.672892 0.065854 0.003210 -0.000455 0.900000 0.003242
2.777711 0.065854 0.003321 -0.000954 0.900000 0.003456
2.882530 0.065854 0.003807 -0.001091 0.900000 0.003960
2.987349 0.065854 0.004179 -0.000817 0.900000 0.004258
3.092169 0.065854 0.003978 -0.000144 0.900000 0.003981
3.196988 0.065854 0.002969 0.000559 0.900000 0.003021
3.301807 0.065854 0.001747 0.000440 0.900000 0.001802
3.406627 0.065854 0.001309 -0.000320 0.900000 0.001348
3.511446 0.065854 0.001770 -0.000854 0.900000 0.001965
3.616265 0.065854 0.002565 -0.000967 0.900000 0.002742
3.721084 0.065854 0.003179 -0.000654 0.900000 0.003245
3.825904 0.065854 0.003168 0.000063 0.900000 0.003169
3.930723 0.065854 0.002342 0.000797 0.900000 0.002474
4.035542 0.065854 0.001431 0.000591 0.900000 0.001548
4.140361 0.065854 0.001548 -0.000294 0.900000 0.001576
4.245181 0.065854 0.002825 -0.000940 0.900000 0.002977
4.350000 0.065854 0.004621 -0.001071 0.900000 0.004744
4.454819 0.065854 0.006268 -0.000654 0.900000 0.006302
4.559639 0.065854 0.007211 0.000190 0.900000 0.007213
4.664458 0.065854 0.007205 0.001026 0.900000 0.007278
4.769277 0.065854 0.006967 0.000876 0.900000 0.007022
4.874096 0.065854 0.007663 0.000002 0.900000 0.007663
4.978916 0.065854 0.009407 -0.000603 0.900000 0.009426
5.083735 0.065854 0.011517 -0.000763 0.900000 0.011543
5.188554 0.065854 0.013423 -0.000497 0.900000 0.013432
5.293373 0.065854 0.014669 0.000129 0.900000 0.014670
5.398193 0.065854 0.015001 0.000783 0.900000 0.015021
5.503012 0.065854 0.014953 0.000678 0.900000 0.014968
5.607831 0.065854 0.015501 -0.000017 0.900000 0.015501
5.712651 0.065854 0.016806 -0.000510 0.900000 0.016813
5.817470 0.065854 0.018315 -0.000602 0.900000 0.018325
5.922289 0.065854 0.019605 -0.000405 0.900000 0.019609
6.027108 0.065854 0.020458 0.000013 0.900000 0.020458
6.131928 0.065854 0.020773 0.000434 0.900000 0.020778
6.236747 0.065854 0.020874 0.000395 0.900000 0.020878
6.341566 0.065854 0.021317 -0.000025 0.900000 0.021317
6.446386 0.065854 0.022198 -0.000341 0.900000 0.022200
6.551205 0.065854 0.023231 -0.000437 0.900000 0.023235
6.656024 0.065854 0.024197 -0.000365 0.900000 0.024200
6.760843 0.065854 0.025041 -0.000247 0.900000 0.025042
6.865663 0.065854 0.025607 0.000025 0.900000 0.025607
6.970482 0.065854 0.025880 0.000063 0.900000 0.025880
7.075301 0.065854 0.026145 -0.000122 0.900000 0.026145
7.180120 0.065854 0.026445 -0.000231 0.900000 0.026446
7.284940 0.065854 0.026643 -0.000224 0.900000 0.026644
7.389759 0.065854 0.026676 -0.000124 0.900000 0.026677
7.494578 0.065854 0.026584 -0.000034 0.900000 0.026584
7.599398 0.065854 0.026597 -0.000134 0.900000 0.026597
7.704217 0.065854 0.026772 -0.000160 0.900000 0.026772
7.809036 0.065854 0.026939 -0.000206 0.900000 0.026940
7.913855 0.065854 0.026847 -0.000124 0.900000 0.026847
8.018675 0.065854 0.026274 0.000102 0.900000 0.026274
8.123494 0.065854 0.025268 -0.000011 0.900000 0.025268
8.228313 0.065854 0.023469 0.000330 0.900000 0.023471
8.333133 0.065854 0.020254 0.000800 0.900000 0.020270
8.437952 0.065854 0.014650 0.001804 0.900000 0.014761
8.542771 0.065854 0.005529 0.002745 0.900000 0.006173
8.647590 0.065854 0.000000 0.000000 0.000000 0.000000
0.052410 0.080488 0.000000 0.000000 0.000000 0.000000
0.157229 0.080488 0.001719 -0.000386 0.900000 0.001762
0.262048 0.080488 0.004529 -0.000613 0.900000 0.004570
0.366867 0.080488 0.006273 -0.000794 0.900000 0.006323
0.471687 0.080488 0.007333 -0.001024 0.900000 0.007404
0.576506 0.080488 0.007809 -0.001416 0.900000 0.007936
0.681325 0.080488 0.007802 -0.000948 0.900000 0.007859
0.786145 0.080488 0.007433 -0.000770 0.900000 0.007473
0.890964 0.080488 0.006718 -0.000708 0.900000 0.006756
0.995783 0.080488 0.005894 -0.000607 0.900000 0.005925
1.100602 0.080488 0.005283 -0.000785 0.900000 0.005341
1.205422 0.080488 0.005142 -0.001152 0.900000 0.005270
1.310241 0.080488 0.005413 -0.001396 0.900000 0.005590
1.415060 0.080488 0.005838 -0.001434 0.900000 0.006012
1.519880 0.080488 0.006195 -0.001250 0.900000 0.006319
1.624699 0.080488 0.006242 -0.000816 0.900000 0.006295
1.729518 0.080488 0.005833 -0.000345 0.900000 0.005843
1.834337 0.080488 0.005277 -0.000409 0.900000 0.005293
1.939157 0.080488 0.005127 -0.000940 0.900000 0.005213
2.043976 0.080488 0.005496 -0.001357 0.900000 0.005661
2.148795 0.080488 0.006043 -0.001431 0.900000 0.006210
2.253614 0.080488 0.006372 -0.001136 0.900000 0.006473
2.358434 0.080488 0.006130 -0.000476 0.900000 0.006149
2.463253 0.080488 0.005141 0.000218 0.900000 0.005145
2.568072 0.080488 0.003878 0.000148 0.900000 0.003881
2.672892 0.080488 0.003189 -0.000584 0.900000 0.003242
2.777711 0.080488 0.003287 -0.001168 0.900000 0.003489
2.882530 0.080488 0.003771 -0.001314 0.900000 0.003993
2.987349 0.080488 0.004162 -0.000975 0.900000 0.004275
3.092169 0.080488 0.003995 -0.000166 0.900000 0.003999
3.196988 0.080488 0.003001 0.000677 0.900000 0.003077
3.301807 0.080488 0.001768 0.000514 0.900000 0.001841
3.406627 0.080488 0.001313 -0.000411 0.900000 0.001375
3.511446 0.080488 0.001757 -0.001035 0.900000 0.002040
3.616265 0.080488 0.002545 -0.001150 0.900000 0.002793
3.721084 0.080488 0.003174 -0.000765 0.900000 0.003265
3.825904 0.080488 0.003197 0.000092 0.900000 0.003199
3.930723 0.080488 0.002386 0.000966 0.900000 0.002574
4.035542 0.080488 0.001459 0.000687 0.900000 0.001613
4.140361 0.080488 0.001557 -0.000385 0.900000 0.001604
4.245181 0.080488 0.002812 -0.001138 0.900000 0.003034
4.350000 0.080488 0.004600 -0.001271 0.900000 0.004772
4.454819 0.080488 0.006264 -0.000758 0.900000 0.006310
4.559639 0.080488 0.007239 0.000255 0.900000 0.007243
4.664458 0.080488 0.007240 0.001261 0.900000 0.007349
4.769277 0.080488 0.006972 0.001063 0.900000 0.007053
4.874096 0.080488 0.007640 -0.000001 0.900000 0.007640
4.978916 0.080488 0.009363 -0.000709 0.900000 0.009389
5.083735 0.080488 0.011460 -0.000886 0.900000 0.011494
5.188554 0.080488 0.013374 -0.000566 0.900000 0.013386
5.293373 0.080488 0.014649 0.000179 0.900000 0.014650
5.398193 0.080488 0.014993 0.000962 0.900000 0.015024
5.503012 0.080488 0.014925 0.000820 0.900000 0.014947
5.607831 0.080488 0.015449 -0.000031 0.900000 0.015449
5.712651 0.080488 0.016743 -0.000617 0.900000 0.016754
5.817470 0.080488 0.018246 -0.000712 0.900000 0.018260
5.922289 0.080488 0.019542 -0.000475 0.900000 0.019547
6.027108 0.080488 0.020413 0.000020 0.900000 0.020413
6.131928 0.080488 0.020743 0.000518 0.900000 0.020749
6.236747 0.080488 0.020838 0.000466 0.900000 0.020843
6.341566 0.080488 0.021261 -0.000039 0.900000 0.021261
6.446386 0.080488 0.022122 -0.000407 0.900000 0.022125
6.551205 0.080488 0.023141 -0.000520 0.900000 0.023147
6.656024 0.080488 0.024106 -0.000442 0.900000 0.024110
6.760843 0.080488 0.024973 -0.000329 0.900000 0.024976
6.865663 0.080488 0.025570 -0.000004 0.900000 0.025570
6.970482 0.080488 0.025847 0.000046 0.900000 0.025847
7.075301 0.080488 0.026100 -0.000169 0.900000 0.026101
7.180120 0.080488 0.026385 -0.000285 0.900000 0.026387
7.284940 0.080488 0.026577 -0.000268 0.900000 0.026578
7.389759 0.080488 0.026614 -0.000147 0.900000 0.026614
7.494578 0.080488 0.026523 -0.000051 0.900000 0.026523
7.599398 0.080488 0.026559 -0.000211 0.900000 0.026560
7.704217 0.080488 0.026763 -0.000241 0.900000 0.026764
7.809036 0.080488 0.026933 -0.000283 0.900000 0.026935
7.913855 0.080488 0.026860 -0.000157 0.900000 0.026860
8.018675 0.080488 0.026366 0.000123 0.900000 0.026366
8.123494 0.080488 0.025362 0.000012 0.900000 0.025362
8.228313 0.080488 0.023499 0.000428 0.900000 0.023503
8.333133 0.080488 0.020315 0.001014 0.900000 0.020340
8.437952 0.080488 0.014751 0.002325 0.900000 0.014933
8.542771 0.080488 0.005579 0.003553 0.900000 0.006614
8.647590 0.080488 0.000000 0.000000 0.000000 0.000000
0.052410 0.095122 0.000000 0.000000 0.000000 0.000000
0.157229 0.095122 0.001659 -0.000442 0.900000 0.001717
0.262048 0.095122 0.004413 -0.000755 0.900000 0.004477
0.366867 0.095122 0.006165 -0.000980 0.900000 0.006242
0.471687 0.095122 0.007216 -0.001258 0.900000 0.007325
0.576506 0.095122 0.007596 -0.001653 0.900000 0.007774
0.681325 0.095122 0.007500 -0.001161 0.900000 0.007589
0.786145 0.095122 0.007162 -0.000954 0.900000 0.007225
0.890964 0.095122 0.006502 -0.000875 0.900000 0.006561
0.995783 0.095122 0.005716 -0.000770 0.900000 0.005767
1.100602 0.095122 0.005139 -0.000993 0.900000 0.005234
1.205422 0.095122 0.005023 -0.001427 0.900000 0.005222
1.310241 0.095122 0.005308 -0.001702 0.900000 0.005574
1.415060 0.095122 0.005738 -0.001732 0.900000 0.005993
1.519880 0.095122 0.006100 -0.001511 0.900000 0.006285
1.624699 0.095122 0.006163 -0.001003 0.900000 0.006244
1.729518 0.095122 0.005774 -0.000455 0.900000 0.005791
1.834337 0.095122 0.005230 -0.000540 0.900000 0.005258
1.939157 0.095122 0.005084 -0.001166 0.900000 0.005216
2.043976 0.095122 0.005447 -0.001643 0.900000 0.005689
2.148795 0.095122 0.005987 -0.001716 0.900000 0.006228
2.253614 0.095122 0.006322 -0.001363 0.900000 0.006468
2.358434 0.095122 0.006103 -0.000590 0.900000 0.006131
2.463253 0.095122 0.005138 0.000222 0.900000 0.005143
2.568072 0.095122 0.003886 0.000130 0.900000 0.003888
2.672892 0.095122 0.003189 -0.000731 0.900000 0.003272
2.777711 0.095122 0.003267 -0.001401 0.900000 0.003555
2.882530 0.095122 0.003733 -0.001557 0.900000 0.004045
2.987349 0.095122 0.004129 -0.001155 0.900000 0.004288
3.092169 0.095122 0.003992 -0.000210 0.900000 0.003997
3.196988 0.095122 0.003025 0.000777 0.900000 0.003123
3.301807 0.095122 0.001801 0.000568 0.900000 0.001889
3.406627 0.095122 0.001340 -0.000523 0.900000 0.001439
3.511446 0.095122 0.001761 -0.001236 0.900000 0.002152
3.616265 0.095122 0.002524 -0.001354 0.900000 0.002864
3.721084 0.095122 0.003151 -0.000899 0.900000 0.003277
3.825904 0.095122 0.003203 0.000096 0.900000 0.003204
3.930723 0.095122 0.002419 0.001114 0.900000 0.002663
4.035542 0.095122 0.001504 0.000759 0.900000 0.001685
4.140361 0.095122 0.001597 -0.000501 0.900000 0.001674
4.245181 0.095122 0.002820 -0.001362 0.900000 0.003132
4.350000 0.095122 0.004579 -0.001499 0.900000 0.004818
4.454819 0.095122 0.006242 -0.000891 0.900000 0.006305
4.559639 0.095122 0.007245 0.000291 0.900000 0.007251
4.664458 0.095122 0.007268 0.001476 0.900000 0.007416
4.769277 0.095122 0.006993 0.001229 0.900000 0.007100
4.874096 0.095122 0.007643 -0.000029 0.900000 0.007643
4.978916 0.095122 0.009335 -0.000839 0.900000 0.009373
5.083735 0.095122 0.011400 -0.001033 0.900000 0.011447