TITLE="(Vx,Vy)"
VARIABLES=X,Y,Vx,Vy,Vm,V
ZONE T="T-Dummy" I=83, J=41, F=POINT
0.052410 0.007317 0.000000 0.000000 0.000000 0.000000
0.157229 0.007317 0.000000 0.000000 0.000000 0.000000
0.262048 0.007317 0.000000 0.000000 0.000000 0.000000
0.366867 0.007317 0.000000 0.000000 0.000000 0.000000
0.471687 0.007317 0.000000 0.000000 0.000000 0.000000
0.576506 0.007317 0.000000 0.000000 0.000000 0.000000
0.681325 0.007317 0.000000 0.000000 0.000000 0.000000
0.786145 0.007317 0.000000 0.000000 0.000000 0.000000
0.890964 0.007317 0.000000 0.000000 0.000000 0.000000
0.995783 0.007317 0.000000 0.000000 0.000000 0.000000
1.100602 0.007317 0.000000 0.000000 0.000000 0.000000
1.205422 0.007317 0.000000 0.000000 0.000000 0.000000
1.310241 0.007317 0.000000 0.000000 0.000000 0.000000
1.415060 0.007317 0.000000 0.000000 0.000000 0.000000
1.519880 0.007317 0.000000 0.000000 0.000000 0.000000
1.624699 0.007317 0.000000 0.000000 0.000000 0.000000
1.729518 0.007317 0.000000 0.000000 0.000000 0.000000
1.834337 0.007317 0.000000 0.000000 0.000000 0.000000
1.939157 0.007317 0.000000 0.000000 0.000000 0.000000
2.043976 0.007317 0.000000 0.000000 0.000000 0.000000
2.148795 0.007317 0.000000 0.000000 0.000000 0.000000
2.253614 0.007317 0.000000 0.000000 0.000000 0.000000
2.358434 0.007317 0.000000 0.000000 0.000000 0.000000
2.463253 0.007317 0.000000 0.000000 0.000000 0.000000
2.568072 0.007317 0.000000 0.000000 0.000000 0.000000
2.672892 0.007317 0.000000 0.000000 0.000000 0.000000
2.777711 0.007317 0.000000 0.000000 0.000000 0.000000
2.882530 0.007317 0.000000 0.000000 0.000000 0.000000
2.987349 0.007317 0.000000 0.000000 0.000000 0.000000
3.092169 0.007317 0.000000 0.000000 0.000000 0.000000
3.196988 0.007317 0.000000 0.000000 0.000000 0.000000
3.301807 0.007317 0.000000 0.000000 0.000000 0.000000
3.406627 0.007317 0.000000 0.000000 0.000000 0.000000
3.511446 0.007317 0.000000 0.000000 0.000000 0.000000
3.616265 0.007317 0.000000 0.000000 0.000000 0.000000
3.721084 0.007317 0.000000 0.000000 0.000000 0.000000
3.825904 0.007317 0.000000 0.000000 0.000000 0.000000
3.930723 0.007317 0.000000 0.000000 0.000000 0.000000
4.035542 0.007317 0.000000 0.000000 0.000000 0.000000
4.140361 0.007317 0.000000 0.000000 0.000000 0.000000
4.245181 0.007317 0.000000 0.000000 0.000000 0.000000
4.350000 0.007317 0.000000 0.000000 0.000000 0.000000
4.454819 0.007317 0.000000 0.000000 0.000000 0.000000
4.559639 0.007317 0.000000 0.000000 0.000000 0.000000
4.664458 0.007317 0.000000 0.000000 0.000000 0.000000
4.769277 0.007317 0.000000 0.000000 0.000000 0.000000
4.874096 0.007317 0.000000 0.000000 0.000000 0.000000
4.978916 0.007317 0.000000 0.000000 0.000000 0.000000
5.083735 0.007317 0.000000 0.000000 0.000000 0.000000
5.188554 0.007317 0.000000 0.000000 0.000000 0.000000
5.293373 0.007317 0.000000 0.000000 0.000000 0.000000
5.398193 0.007317 0.000000 0.000000 0.000000 0.000000
5.503012 0.007317 0.000000 0.000000 0.000000 0.000000
5.607831 0.007317 0.000000 0.000000 0.000000 0.000000
5.712651 0.007317 0.000000 0.000000 0.000000 0.000000
5.817470 0.007317 0.000000 0.000000 0.000000 0.000000
5.922289 0.007317 0.000000 0.000000 0.000000 0.000000
6.027108 0.007317 0.000000 0.000000 0.000000 0.000000
6.131928 0.007317 0.000000 0.000000 0.000000 0.000000
6.236747 0.007317 0.000000 0.000000 0.000000 0.000000
6.341566 0.007317 0.000000 0.000000 0.000000 0.000000
6.446386 0.007317 0.000000 0.000000 0.000000 0.000000
6.551205 0.007317 0.000000 0.000000 0.000000 0.000000
6.656024 0.007317 0.000000 0.000000 0.000000 0.000000
6.760843 0.007317 0.000000 0.000000 0.000000 0.000000
6.865663 0.007317 0.000000 0.000000 0.000000 0.000000
6.970482 0.007317 0.000000 0.000000 0.000000 0.000000
7.075301 0.007317 0.000000 0.000000 0.000000 0.000000
7.180120 0.007317 0.000000 0.000000 0.000000 0.000000
7.284940 0.007317 0.000000 0.000000 0.000000 0.000000
7.389759 0.007317 0.000000 0.000000 0.000000 0.000000
7.494578 0.007317 0.000000 0.000000 0.000000 0.000000
7.599398 0.007317 0.000000 0.000000 0.000000 0.000000
7.704217 0.007317 0.000000 0.000000 0.000000 0.000000
7.809036 0.007317 0.000000 0.000000 0.000000 0.000000
7.913855 0.007317 0.000000 0.000000 0.000000 0.000000
8.018675 0.007317 0.000000 0.000000 0.000000 0.000000
8.123494 0.007317 0.000000 0.000000 0.000000 0.000000
8.228313 0.007317 0.000000 0.000000 0.000000 0.000000
8.333133 0.007317 0.000000 0.000000 0.000000 0.000000
8.437952 0.007317 0.000000 0.000000 0.000000 0.000000
8.542771 0.007317 0.000000 0.000000 0.000000 0.000000
8.647590 0.007317 0.000000 0.000000 0.000000 0.000000
0.052410 0.021951 0.000000 0.000000 0.000000 0.000000
0.157229 0.021951 -0.000269 0.000149 0.900000 0.000307
0.262048 0.021951 -0.000460 0.000087 0.900000 0.000468
0.366867 0.021951 -0.000020 0.000035 0.900000 0.000041
0.471687 0.021951 0.000795 0.000016 0.900000 0.000795
0.576506 0.021951 0.001744 0.000008 0.900000 0.001744
0.681325 0.021951 0.002818 -0.000021 0.900000 0.002818
0.786145 0.021951 0.003937 -0.000022 0.900000 0.003937
0.890964 0.021951 0.004890 -0.000020 0.900000 0.004890
0.995783 0.021951 0.005541 -0.000015 0.900000 0.005542
1.100602 0.021951 0.005921 -0.000015 0.900000 0.005921
1.205422 0.021951 0.006223 -0.000026 0.900000 0.006223
1.310241 0.021951 0.006648 -0.000041 0.900000 0.006648
1.415060 0.021951 0.007151 -0.000043 0.900000 0.007151
1.519880 0.021951 0.007535 -0.000034 0.900000 0.007535
1.624699 0.021951 0.007613 -0.000014 0.900000 0.007613
1.729518 0.021951 0.007229 0.000014 0.900000 0.007229
1.834337 0.021951 0.006597 0.000017 0.900000 0.006597
1.939157 0.021951 0.006243 -0.000008 0.900000 0.006243
2.043976 0.021951 0.006435 -0.000032 0.900000 0.006436
2.148795 0.021951 0.006997 -0.000034 0.900000 0.006997
2.253614 0.021951 0.007507 -0.000011 0.900000 0.007507
2.358434 0.021951 0.007557 0.000030 0.900000 0.007557
2.463253 0.021951 0.007008 0.000071 0.900000 0.007008
2.568072 0.021951 0.006228 0.000075 0.900000 0.006229
2.672892 0.021951 0.005906 0.000043 0.900000 0.005906
2.777711 0.021951 0.006394 0.000009 0.900000 0.006394
2.882530 0.021951 0.007511 -0.000007 0.900000 0.007511
2.987349 0.021951 0.008738 0.000006 0.900000 0.008738
3.092169 0.021951 0.009463 0.000049 0.900000 0.009463
3.196988 0.021951 0.009338 0.000104 0.900000 0.009339
3.301807 0.021951 0.008691 0.000116 0.900000 0.008692
3.406627 0.021951 0.008391 0.000077 0.900000 0.008392
3.511446 0.021951 0.008947 0.000035 0.900000 0.008947
3.616265 0.021951 0.010124 0.000018 0.900000 0.010124
3.721084 0.021951 0.011288 0.000037 0.900000 0.011288
3.825904 0.021951 0.011745 0.000092 0.900000 0.011746
3.930723 0.021951 0.011128 0.000158 0.900000 0.011129
4.035542 0.021951 0.009913 0.000169 0.900000 0.009914
4.140361 0.021951 0.009194 0.000116 0.900000 0.009194
4.245181 0.021951 0.009570 0.000057 0.900000 0.009570
4.350000 0.021951 0.010755 0.000028 0.900000 0.010755
4.454819 0.021951 0.011893 0.000044 0.900000 0.011893
4.559639 0.021951 0.012101 0.000097 0.900000 0.012101
4.664458 0.021951 0.011016 0.000156 0.900000 0.011017
4.769277 0.021951 0.009203 0.000150 0.900000 0.009204
4.874096 0.021951 0.007822 0.000082 0.900000 0.007822
4.978916 0.021951 0.007428 0.000023 0.900000 0.007428
5.083735 0.021951 0.007702 0.000003 0.900000 0.007702
5.188554 0.021951 0.007953 0.000022 0.900000 0.007953
5.293373 0.021951 0.007578 0.000073 0.900000 0.007578
5.398193 0.021951 0.006377 0.000128 0.900000 0.006379
5.503012 0.021951 0.004867 0.000129 0.900000 0.004869
5.607831 0.021951 0.003969 0.000080 0.900000 0.003970
5.712651 0.021951 0.004077 0.000035 0.900000 0.004077
5.817470 0.021951 0.004847 0.000023 0.900000 0.004847
5.922289 0.021951 0.005664 0.000033 0.900000 0.005664
6.027108 0.021951 0.006045 0.000063 0.900000 0.006046
6.131928 0.021951 0.005779 0.000097 0.900000 0.005779
6.236747 0.021951 0.005134 0.000098 0.900000 0.005135
6.341566 0.021951 0.004719 0.000066 0.900000 0.004720
6.446386 0.021951 0.004814 0.000038 0.900000 0.004814
6.551205 0.021951 0.005212 0.000028 0.900000 0.005212
6.656024 0.021951 0.005553 0.000036 0.900000 0.005553
6.760843 0.021951 0.005507 0.000057 0.900000 0.005507
6.865663 0.021951 0.004957 0.000076 0.900000 0.004957
6.970482 0.021951 0.004205 0.000064 0.900000 0.004206
7.075301 0.021951 0.003652 0.000041 0.900000 0.003652
7.180120 0.021951 0.003287 0.000039 0.900000 0.003288
7.284940 0.021951 0.002926 0.000042 0.900000 0.002927
7.389759 0.021951 0.002456 0.000051 0.900000 0.002457
7.494578 0.021951 0.001764 0.000063 0.900000 0.001765
7.599398 0.021951 0.000912 0.000065 0.900000 0.000914
7.704217 0.021951 0.000190 0.000049 0.900000 0.000196
7.809036 0.021951 -0.000161 0.000026 0.900000 0.000163
7.913855 0.021951 -0.000019 0.000007 0.900000 0.000020
8.018675 0.021951 0.000390 0.000028 0.900000 0.000391
8.123494 0.021951 0.000816 0.000043 0.900000 0.000817
8.228313 0.021951 0.001441 0.000043 0.900000 0.001441
8.333133 0.021951 0.002136 0.000083 0.900000 0.002138
8.437952 0.021951 0.002258 0.000158 0.900000 0.002264
8.542771 0.021951 0.001042 0.000249 0.900000 0.001071
8.647590 0.021951 0.000000 0.000000 0.000000 0.000000
0.052410 0.036585 0.000000 0.000000 0.000000 0.000000
0.157229 0.036585 -0.000305 0.000451 0.900000 0.000544
0.262048 0.036585 -0.000533 0.000261 0.900000 0.000594
0.366867 0.036585 -0.000084 0.000104 0.900000 0.000133
0.471687 0.036585 0.000767 0.000045 0.900000 0.000768
0.576506 0.036585 0.002015 -0.000016 0.900000 0.002015
0.681325 0.036585 0.003018 -0.000044 0.900000 0.003019
0.786145 0.036585 0.003592 -0.000063 0.900000 0.003592
0.890964 0.036585 0.004360 -0.000081 0.900000 0.004360
0.995783 0.036585 0.005151 -0.000080 0.900000 0.005152
1.100602 0.036585 0.005792 -0.000084 0.900000 0.005792
1.205422 0.036585 0.006285 -0.000107 0.900000 0.006286
1.310241 0.036585 0.006708 -0.000143 0.900000 0.006710
1.415060 0.036585 0.007034 -0.000143 0.900000 0.007036
1.519880 0.036585 0.007202 -0.000121 0.900000 0.007203
1.624699 0.036585 0.007204 -0.000072 0.900000 0.007204
1.729518 0.036585 0.007010 -0.000008 0.900000 0.007010
1.834337 0.036585 0.006743 -0.000003 0.900000 0.006743
1.939157 0.036585 0.006640 -0.000066 0.900000 0.006641
2.043976 0.036585 0.006766 -0.000122 0.900000 0.006767
2.148795 0.036585 0.006986 -0.000120 0.900000 0.006987
2.253614 0.036585 0.007106 -0.000056 0.900000 0.007106
2.358434 0.036585 0.007003 0.000044 0.900000 0.007003
2.463253 0.036585 0.006705 0.000140 0.900000 0.006706
2.568072 0.036585 0.006421 0.000147 0.900000 0.006423
2.672892 0.036585 0.006421 0.000070 0.900000 0.006421
2.777711 0.036585 0.006785 -0.000007 0.900000 0.006785
2.882530 0.036585 0.007411 -0.000042 0.900000 0.007412
2.987349 0.036585 0.008101 -0.000014 0.900000 0.008101
3.092169 0.036585 0.008619 0.000085 0.900000 0.008620
3.196988 0.036585 0.008823 0.000218 0.900000 0.008826
3.301807 0.036585 0.008816 0.000247 0.900000 0.008820
3.406627 0.036585 0.008926 0.000156 0.900000 0.008927
3.511446 0.036585 0.009321 0.000063 0.900000 0.009322
3.616265 0.036585 0.009880 0.000027 0.900000 0.009880
3.721084 0.036585 0.010373 0.000072 0.900000 0.010373
3.825904 0.036585 0.010575 0.000200 0.900000 0.010577
3.930723 0.036585 0.010367 0.000359 0.900000 0.010373
4.035542 0.036585 0.009941 0.000386 0.900000 0.009949
4.140361 0.036585 0.009720 0.000261 0.900000 0.009723
4.245181 0.036585 0.009889 0.000124 0.900000 0.009889
4.350000 0.036585 0.010317 0.000054 0.900000 0.010317
4.454819 0.036585 0.010679 0.000085 0.900000 0.010680
4.559639 0.036585 0.010637 0.000206 0.900000 0.010639
4.664458 0.036585 0.010020 0.000346 0.900000 0.010026
4.769277 0.036585 0.009010 0.000333 0.900000 0.009016
4.874096 0.036585 0.008078 0.000169 0.900000 0.008080
4.978916 0.036585 0.007455 0.000031 0.900000 0.007455
5.083735 0.036585 0.007046 -0.000015 0.900000 0.007046
5.188554 0.036585 0.006638 0.000030 0.900000 0.006638
5.293373 0.036585 0.006067 0.000150 0.900000 0.006069
5.398193 0.036585 0.005281 0.000286 0.900000 0.005289
5.503012 0.036585 0.004465 0.000290 0.900000 0.004474
5.607831 0.036585 0.003985 0.000177 0.900000 0.003988
5.712651 0.036585 0.004002 0.000070 0.900000 0.004003
5.817470 0.036585 0.004354 0.000043 0.900000 0.004354
5.922289 0.036585 0.004772 0.000065 0.900000 0.004773
6.027108 0.036585 0.005078 0.000132 0.900000 0.005079
6.131928 0.036585 0.005146 0.000216 0.900000 0.005150
6.236747 0.036585 0.005002 0.000224 0.900000 0.005007
6.341566 0.036585 0.004865 0.000152 0.900000 0.004867
6.446386 0.036585 0.004854 0.000089 0.900000 0.004855
6.551205 0.036585 0.004909 0.000066 0.900000 0.004909
6.656024 0.036585 0.004932 0.000081 0.900000 0.004933
6.760843 0.036585 0.004823 0.000128 0.900000 0.004825
6.865663 0.036585 0.004527 0.000172 0.900000 0.004530
6.970482 0.036585 0.004160 0.000140 0.900000 0.004162
7.075301 0.036585 0.003841 0.000088 0.900000 0.003842
7.180120 0.036585 0.003461 0.000096 0.900000 0.003462
7.284940 0.036585 0.002938 0.000110 0.900000 0.002940
7.389759 0.036585 0.002328 0.000135 0.900000 0.002332
7.494578 0.036585 0.001645 0.000161 0.900000 0.001653
7.599398 0.036585 0.000973 0.000160 0.900000 0.000986
7.704217 0.036585 0.000497 0.000115 0.900000 0.000511
7.809036 0.036585 0.000289 0.000055 0.900000 0.000294
7.913855 0.036585 0.000273 0.000020 0.900000 0.000274
8.018675 0.036585 0.000227 0.000085 0.900000 0.000242
8.123494 0.036585 0.000627 0.000090 0.900000 0.000633
8.228313 0.036585 0.001500 0.000126 0.900000 0.001505
8.333133 0.036585 0.002195 0.000247 0.900000 0.002209
8.437952 0.036585 0.002314 0.000474 0.900000 0.002362
8.542771 0.036585 0.001069 0.000751 0.900000 0.001306
8.647590 0.036585 0.000000 0.000000 0.000000 0.000000
0.052410 0.051220 0.000000 0.000000 0.000000 0.000000
0.157229 0.051220 -0.000353 0.000762 0.900000 0.000840
0.262048 0.051220 -0.000629 0.000433 0.900000 0.000763
0.366867 0.051220 -0.000169 0.000167 0.900000 0.000238
0.471687 0.051220 0.000697 0.000068 0.900000 0.000701
0.576506 0.051220 0.001823 -0.000062 0.900000 0.001824
0.681325 0.051220 0.002749 -0.000051 0.900000 0.002750
0.786145 0.051220 0.003406 -0.000103 0.900000 0.003408
0.890964 0.051220 0.004211 -0.000166 0.900000 0.004214
0.995783 0.051220 0.005012 -0.000180 0.900000 0.005015
1.100602 0.051220 0.005658 -0.000190 0.900000 0.005661
1.205422 0.051220 0.006159 -0.000218 0.900000 0.006162
1.310241 0.051220 0.006595 -0.000265 0.900000 0.006600
1.415060 0.051220 0.006934 -0.000257 0.900000 0.006939
1.519880 0.051220 0.007112 -0.000225 0.900000 0.007115
1.624699 0.051220 0.007120 -0.000161 0.900000 0.007122
1.729518 0.051220 0.006928 -0.000079 0.900000 0.006929
1.834337 0.051220 0.006660 -0.000078 0.900000 0.006661
1.939157 0.051220 0.006561 -0.000167 0.900000 0.006563
2.043976 0.051220 0.006700 -0.000238 0.900000 0.006704
2.148795 0.051220 0.006935 -0.000223 0.900000 0.006938
2.253614 0.051220 0.007063 -0.000125 0.900000 0.007065
2.358434 0.051220 0.006962 0.000013 0.900000 0.006962
2.463253 0.051220 0.006660 0.000138 0.900000 0.006662
2.568072 0.051220 0.006369 0.000142 0.900000 0.006371
2.672892 0.051220 0.006368 0.000039 0.900000 0.006368
2.777711 0.051220 0.006738 -0.000057 0.900000 0.006739
2.882530 0.051220 0.007371 -0.000101 0.900000 0.007372
2.987349 0.051220 0.008067 -0.000067 0.900000 0.008067
3.092169 0.051220 0.008588 0.000060 0.900000 0.008588
3.196988 0.051220 0.008787 0.000237 0.900000 0.008790
3.301807 0.051220 0.008768 0.000280 0.900000 0.008773
3.406627 0.051220 0.008874 0.000162 0.900000 0.008875
3.511446 0.051220 0.009274 0.000048 0.900000 0.009274
3.616265 0.051220 0.009840 0.000008 0.900000 0.009840
3.721084 0.051220 0.010339 0.000067 0.900000 0.010339
3.825904 0.051220 0.010544 0.000232 0.900000 0.010546
3.930723 0.051220 0.010328 0.000445 0.900000 0.010338
4.035542 0.051220 0.009890 0.000482 0.900000 0.009902
4.140361 0.051220 0.009664 0.000318 0.900000 0.009670
4.245181 0.051220 0.009840 0.000141 0.900000 0.009841
4.350000 0.051220 0.010278 0.000048 0.900000 0.010278
4.454819 0.051220 0.010647 0.000079 0.900000 0.010647
4.559639 0.051220 0.010608 0.000229 0.900000 0.010611
4.664458 0.051220 0.009984 0.000417 0.900000 0.009993
4.769277 0.051220 0.008964 0.000398 0.900000 0.008973
4.874096 0.051220 0.008035 0.000179 0.900000 0.008037
4.978916 0.051220 0.007427 0.000001 0.900000 0.007427
5.083735 0.051220 0.007032 -0.000056 0.900000 0.007032
5.188554 0.051220 0.006634 0.000001 0.900000 0.006634
5.293373 0.051220 0.006067 0.000157 0.900000 0.006069
5.398193 0.051220 0.005278 0.000344 0.900000 0.005289
5.503012 0.051220 0.004454 0.000355 0.900000 0.004468
5.607831 0.051220 0.003973 0.000208 0.900000 0.003978
5.712651 0.051220 0.004000 0.000067 0.900000 0.004001
5.817470 0.051220 0.004361 0.000037 0.900000 0.004361
5.922289 0.051220 0.004783 0.000060 0.900000 0.004783
6.027108 0.051220 0.005091 0.000142 0.900000 0.005093
6.131928 0.051220 0.005157 0.000258 0.900000 0.005164
6.236747 0.051220 0.005009 0.000278 0.900000 0.005017
6.341566 0.051220 0.004872 0.000190 0.900000 0.004876
6.446386 0.051220 0.004868 0.000114 0.900000 0.004869
6.551205 0.051220 0.004928 0.000086 0.900000 0.004929
6.656024 0.051220 0.004956 0.000102 0.900000 0.004957
6.760843 0.051220 0.004851 0.000158 0.900000 0.004853
6.865663 0.051220 0.004555 0.000212 0.900000 0.004559
6.970482 0.051220 0.004189 0.000165 0.900000 0.004192
7.075301 0.051220 0.003883 0.000100 0.900000 0.003884
7.180120 0.051220 0.003515 0.000133 0.900000 0.003518
7.284940 0.051220 0.003000 0.000163 0.900000 0.003004
7.389759 0.051220 0.002399 0.000199 0.900000 0.002407
7.494578 0.051220 0.001723 0.000232 0.900000 0.001739
7.599398 0.051220 0.001055 0.000220 0.900000 0.001078
7.704217 0.051220 0.000584 0.000147 0.900000 0.000602
7.809036 0.051220 0.000379 0.000062 0.900000 0.000384
7.913855 0.051220 0.000369 0.000032 0.900000 0.000370
8.018675 0.051220 0.000419 0.000133 0.900000 0.000440
8.123494 0.051220 0.000822 0.000106 0.900000 0.000829
8.228313 0.051220 0.001596 0.000207 0.900000 0.001610
8.333133 0.051220 0.002281 0.000410 0.900000 0.002317
8.437952 0.051220 0.002399 0.000789 0.900000 0.002525
8.542771 0.051220 0.001110 0.001262 0.900000 0.001681
8.647590 0.051220 0.000000 0.000000 0.000000 0.000000
0.052410 0.065854 0.000000 0.000000 0.000000 0.000000
0.157229 0.065854 -0.000411 0.001086 0.900000 0.001161
0.262048 0.065854 -0.000744 0.000602 0.900000 0.000957
0.366867 0.065854 -0.000271 0.000225 0.900000 0.000352
0.471687 0.065854 0.000606 0.000090 0.900000 0.000612
0.576506 0.065854 0.001634 -0.000076 0.900000 0.001636
0.681325 0.065854 0.002500 -0.000058 0.900000 0.002500
0.786145 0.065854 0.003216 -0.000148 0.900000 0.003220
0.890964 0.065854 0.004056 -0.000251 0.900000 0.004064
0.995783 0.065854 0.004870 -0.000282 0.900000 0.004878
1.100602 0.065854 0.005527 -0.000299 0.900000 0.005535
1.205422 0.065854 0.006036 -0.000333 0.900000 0.006045
1.310241 0.065854 0.006484 -0.000391 0.900000 0.006496
1.415060 0.065854 0.006836 -0.000372 0.900000 0.006846
1.519880 0.065854 0.007020 -0.000329 0.900000 0.007028
1.624699 0.065854 0.007034 -0.000250 0.900000 0.007038
1.729518 0.065854 0.006845 -0.000149 0.900000 0.006846
1.834337 0.065854 0.006578 -0.000152 0.900000 0.006580
1.939157 0.065854 0.006485 -0.000269 0.900000 0.006491
2.043976 0.065854 0.006638 -0.000355 0.900000 0.006648
2.148795 0.065854 0.006887 -0.000327 0.900000 0.006895
2.253614 0.065854 0.007022 -0.000194 0.900000 0.007024
2.358434 0.065854 0.006919 -0.000018 0.900000 0.006919
2.463253 0.065854 0.006613 0.000137 0.900000 0.006615
2.568072 0.065854 0.006319 0.000137 0.900000 0.006321
2.672892 0.065854 0.006321 0.000007 0.900000 0.006321
2.777711 0.065854 0.006696 -0.000108 0.900000 0.006697
2.882530 0.065854 0.007332 -0.000160 0.900000 0.007334
2.987349 0.065854 0.008029 -0.000121 0.900000 0.008030
3.092169 0.065854 0.008553 0.000034 0.900000 0.008553
3.196988 0.065854 0.008750 0.000257 0.900000 0.008753
3.301807 0.065854 0.008724 0.000312 0.900000 0.008729
3.406627 0.065854 0.008828 0.000167 0.900000 0.008830
3.511446 0.065854 0.009234 0.000032 0.900000 0.009234
3.616265 0.065854 0.009804 -0.000012 0.900000 0.009804
3.721084 0.065854 0.010304 0.000061 0.900000 0.010304
3.825904 0.065854 0.010510 0.000264 0.900000 0.010513
3.930723 0.065854 0.010290 0.000531 0.900000 0.010304
4.035542 0.065854 0.009843 0.000578 0.900000 0.009860
4.140361 0.065854 0.009616 0.000374 0.900000 0.009623
4.245181 0.065854 0.009797 0.000157 0.900000 0.009799
4.350000 0.065854 0.010240 0.000040 0.900000 0.010240
4.454819 0.065854 0.010612 0.000072 0.900000 0.010612
4.559639 0.065854 0.010575 0.000252 0.900000 0.010578
4.664458 0.065854 0.009949 0.000488 0.900000 0.009961
4.769277 0.065854 0.008922 0.000464 0.900000 0.008934
4.874096 0.065854 0.007998 0.000187 0.900000 0.008001
4.978916 0.065854 0.007406 -0.000032 0.900000 0.007406
5.083735 0.065854 0.007022 -0.000098 0.900000 0.007022
5.188554 0.065854 0.006628 -0.000028 0.900000 0.006628
5.293373 0.065854 0.006067 0.000163 0.900000 0.006069
5.398193 0.065854 0.005277 0.000403 0.900000 0.005293
5.503012 0.065854 0.004447 0.000421 0.900000 0.004467
5.607831 0.065854 0.003967 0.000239 0.900000 0.003974
5.712651 0.065854 0.004004 0.000061 0.900000 0.004004
5.817470 0.065854 0.004371 0.000031 0.900000 0.004371
5.922289 0.065854 0.004791 0.000055 0.900000 0.004792
6.027108 0.065854 0.005101 0.000152 0.900000 0.005104
6.131928 0.065854 0.005170 0.000300 0.900000 0.005179
6.236747 0.065854 0.005021 0.000332 0.900000 0.005032
6.341566 0.065854 0.004886 0.000227 0.900000 0.004891
6.446386 0.065854 0.004886 0.000138 0.900000 0.004888
6.551205 0.065854 0.004949 0.000105 0.900000 0.004951
6.656024 0.065854 0.004979 0.000121 0.900000 0.004981
6.760843 0.065854 0.004875 0.000187 0.900000 0.004879
6.865663 0.065854 0.004579 0.000252 0.900000 0.004586
6.970482 0.065854 0.004219 0.000187 0.900000 0.004223
7.075301 0.065854 0.003931 0.000109 0.900000 0.003932
7.180120 0.065854 0.003576 0.000169 0.900000 0.003580
7.284940 0.065854 0.003064 0.000214 0.900000 0.003071
7.389759 0.065854 0.002469 0.000262 0.900000 0.002482
7.494578 0.065854 0.001798 0.000302 0.900000 0.001823
7.599398 0.065854 0.001132 0.000280 0.900000 0.001166
7.704217 0.065854 0.000665 0.000179 0.900000 0.000689
7.809036 0.065854 0.000465 0.000068 0.900000 0.000470
7.913855 0.065854 0.000467 0.000042 0.900000 0.000469
8.018675 0.065854 0.000597 0.000163 0.900000 0.000619
8.123494 0.065854 0.001013 0.000134 0.900000 0.001022
8.228313 0.065854 0.001715 0.000289 0.900000 0.001739
8.333133 0.065854 0.002389 0.000571 0.900000 0.002456
8.437952 0.065854 0.002511 0.001103 0.900000 0.002742
8.542771 0.065854 0.001167 0.001786 0.900000 0.002133
8.647590 0.065854 0.000000 0.000000 0.000000 0.000000
0.052410 0.080488 0.000000 0.000000 0.000000 0.000000
0.157229 0.080488 -0.000483 0.001425 0.900000 0.001505
0.262048 0.080488 -0.000885 0.000767 0.900000 0.001171
0.366867 0.080488 -0.000392 0.000276 0.900000 0.000479
0.471687 0.080488 0.000493 0.000112 0.900000 0.000505
0.576506 0.080488 0.001442 -0.000067 0.900000 0.001443
0.681325 0.080488 0.002257 -0.000063 0.900000 0.002258
0.786145 0.080488 0.003016 -0.000196 0.900000 0.003023
0.890964 0.080488 0.003886 -0.000338 0.900000 0.003901
0.995783 0.080488 0.004717 -0.000387 0.900000 0.004733
1.100602 0.080488 0.005388 -0.000411 0.900000 0.005404
1.205422 0.080488 0.005907 -0.000449 0.900000 0.005924
1.310241 0.080488 0.006368 -0.000521 0.900000 0.006390
1.415060 0.080488 0.006732 -0.000490 0.900000 0.006749
1.519880 0.080488 0.006919 -0.000433 0.900000 0.006933
1.624699 0.080488 0.006937 -0.000340 0.900000 0.006945
1.729518 0.080488 0.006752 -0.000218 0.900000 0.006755
1.834337 0.080488 0.006489 -0.000226 0.900000 0.006493
1.939157 0.080488 0.006407 -0.000372 0.900000 0.006417
2.043976 0.080488 0.006576 -0.000475 0.900000 0.006593
2.148795 0.080488 0.006838 -0.000432 0.900000 0.006852
2.253614 0.080488 0.006975 -0.000262 0.900000 0.006980
2.358434 0.080488 0.006867 -0.000048 0.900000 0.006868
2.463253 0.080488 0.006558 0.000136 0.900000 0.006560
2.568072 0.080488 0.006266 0.000132 0.900000 0.006267
2.672892 0.080488 0.006275 -0.000027 0.900000 0.006275
2.777711 0.080488 0.006655 -0.000160 0.900000 0.006657
2.882530 0.080488 0.007290 -0.000221 0.900000 0.007293
2.987349 0.080488 0.007983 -0.000176 0.900000 0.007985
3.092169 0.080488 0.008507 0.000006 0.900000 0.008507
3.196988 0.080488 0.008704 0.000276 0.900000 0.008709
3.301807 0.080488 0.008678 0.000344 0.900000 0.008685
3.406627 0.080488 0.008786 0.000170 0.900000 0.008788
3.511446 0.080488 0.009197 0.000014 0.900000 0.009197
3.616265 0.080488 0.009765 -0.000033 0.900000 0.009765
3.721084 0.080488 0.010260 0.000054 0.900000 0.010260
3.825904 0.080488 0.010462 0.000295 0.900000 0.010467
3.930723 0.080488 0.010243 0.000618 0.900000 0.010261
4.035542 0.080488 0.009795 0.000674 0.900000 0.009818
4.140361 0.080488 0.009572 0.000427 0.900000 0.009581
4.245181 0.080488 0.009758 0.000171 0.900000 0.009759
4.350000 0.080488 0.010199 0.000032 0.900000 0.010199
4.454819 0.080488 0.010565 0.000064 0.900000 0.010565
4.559639 0.080488 0.010527 0.000274 0.900000 0.010531
4.664458 0.080488 0.009902 0.000559 0.900000 0.009918
4.769277 0.080488 0.008877 0.000530 0.900000 0.008893
4.874096 0.080488 0.007967 0.000192 0.900000 0.007969
4.978916 0.080488 0.007391 -0.000067 0.900000 0.007391
5.083735 0.080488 0.007012 -0.000141 0.900000 0.007014
5.188554 0.080488 0.006617 -0.000058 0.900000 0.006617
5.293373 0.080488 0.006057 0.000169 0.900000 0.006059
5.398193 0.080488 0.005271 0.000463 0.900000 0.005292
5.503012 0.080488 0.004443 0.000488 0.900000 0.004470
5.607831 0.080488 0.003967 0.000268 0.900000 0.003976
5.712651 0.080488 0.004014 0.000053 0.900000 0.004014
5.817470 0.080488 0.004383 0.000023 0.900000 0.004383
5.922289 0.080488 0.004796 0.000050 0.900000 0.004797
6.027108 0.080488 0.005106 0.000160 0.900000 0.005109
6.131928 0.080488 0.005181 0.000341 0.900000 0.005192
6.236747 0.080488 0.005036 0.000385 0.900000 0.005051
6.341566 0.080488 0.004906 0.000262 0.900000 0.004913
6.446386 0.080488 0.004911 0.000160 0.900000 0.004913
6.551205 0.080488 0.004973 0.000123 0.900000 0.004975
6.656024 0.080488 0.005000 0.000140 0.900000 0.005002
6.760843 0.080488 0.004896 0.000215 0.900000 0.004901
6.865663 0.080488 0.004601 0.000291 0.900000 0.004610
6.970482 0.080488 0.004250 0.000207 0.900000 0.004255
7.075301 0.080488 0.003987 0.000112 0.900000 0.003989
7.180120 0.080488 0.003646 0.000205 0.900000 0.003652
7.284940 0.080488 0.003134 0.000265 0.900000 0.003145
7.389759 0.080488 0.002541 0.000324 0.900000 0.002562
7.494578 0.080488 0.001872 0.000371 0.900000 0.001908
7.599398 0.080488 0.001207 0.000341 0.900000 0.001254
7.704217 0.080488 0.000747 0.000209 0.900000 0.000775
7.809036 0.080488 0.000554 0.000074 0.900000 0.000559
7.913855 0.080488 0.000568 0.000050 0.900000 0.000571
8.018675 0.080488 0.000766 0.000180 0.900000 0.000787
8.123494 0.080488 0.001204 0.000168 0.900000 0.001215
8.228313 0.080488 0.001856 0.000372 0.900000 0.001893
8.333133 0.080488 0.002521 0.000729 0.900000 0.002624
8.437952 0.080488 0.002653 0.001415 0.900000 0.003007
8.542771 0.080488 0.001240 0.002326 0.900000 0.002636
8.647590 0.080488 0.000000 0.000000 0.000000 0.000000
0.052410 0.095122 0.000000 0.000000 0.000000 0.000000
0.157229 0.095122 -0.000569 0.001782 0.900000 0.001871
0.262048 0.095122 -0.001049 0.000927 0.900000 0.001400
0.366867 0.095122 -0.000528 0.000317 0.900000 0.000616
0.471687 0.095122 0.000367 0.000136 0.900000 0.000392
0.576506 0.095122 0.001252 -0.000038 0.900000 0.001252
0.681325 0.095122 0.002025 -0.000063 0.900000 0.002026
0.786145 0.095122 0.002813 -0.000245 0.900000 0.002824
0.890964 0.095122 0.003710 -0.000427 0.900000 0.003735
0.995783 0.095122 0.004562 -0.000496 0.900000 0.004588
1.100602 0.095122 0.005251 -0.000527 0.900000 0.005277
1.205422 0.095122 0.005782 -0.000570 0.900000 0.005810
1.310241 0.095122 0.006256 -0.000656 0.900000 0.006290
1.415060 0.095122 0.006629 -0.000608 0.900000 0.006657
1.519880 0.095122 0.006818 -0.000537 0.900000 0.006839
1.624699 0.095122 0.006836 -0.000428 0.900000 0.006849
1.729518 0.095122 0.006655 -0.000287 0.900000 0.006661
1.834337 0.095122 0.006400 -0.000299 0.900000 0.006407
1.939157 0.095122 0.006331 -0.000476 0.900000 0.006349
2.043976 0.095122 0.006518 -0.000597 0.900000 0.006545
2.148795 0.095122 0.006793 -0.000538 0.900000 0.006814
2.253614 0.095122 0.006928 -0.000329 0.900000 0.006935
2.358434 0.095122 0.006811 -0.000077 0.900000 0.006811
2.463253 0.095122 0.006499 0.000135 0.900000 0.006500
2.568072 0.095122 0.006214 0.000125 0.900000 0.006215
2.672892 0.095122 0.006235 -0.000063 0.900000 0.006235
2.777711 0.095122 0.006620 -0.000213 0.900000 0.006624
2.882530 0.095122 0.007248 -0.000282 0.900000 0.007253
2.987349 0.095122 0.007932 -0.000232 0.900000 0.007936
3.092169 0.095122 0.008454 -0.000023 0.900000 0.008454
3.196988 0.095122 0.008656 0.000294 0.900000 0.008661
3.301807 0.095122 0.008636 0.000374 0.900000 0.008644
3.406627 0.095122 0.008753 0.000170 0.900000 0.008755
3.511446 0.095122 0.009168 -0.000005 0.900000 0.009168
3.616265 0.095122 0.009729 -0.000054 0.900000 0.009729
3.721084 0.095122 0.010210 0.000048 0.900000 0.010210
3.825904 0.095122 0.010407 0.000324 0.900000 0.010412
3.930723 0.095122 0.010190 0.000702 0.900000 0.010214
4.035542 0.095122 0.009751 0.000767 0.900000 0.009781
4.140361 0.095122 0.009538 0.000478 0.900000 0.009549
4.245181 0.095122 0.009726 0.000183 0.900000 0.009728
4.350000 0.095122 0.010159 0.000021 0.900000 0.010159
4.454819 0.095122 0.010511 0.000054 0.900000 0.010511
4.559639 0.095122 0.010468 0.000294 0.900000 0.010472
4.664458 0.095122 0.009848 0.000629 0.900000 0.009868
4.769277 0.095122 0.008834 0.000594 0.900000 0.008854
4.874096 0.095122 0.007943 0.000192 0.900000 0.007946
4.978916 0.095122 0.007384 -0.000105 0.900000 0.007385
5.083735 0.095122 0.007006 -0.000185 0.900000 0.007009
5.188554 0.095122 0.006602 -0.000088 0.900000 0.006603
5.293373 0.095122 0.006039 0.000173 0.900000 0.006042
5.398193 0.095122 0.005260 0.000522 0.900000 0.005286
5.503012 0.095122 0.004441 0.000553 0.900000 0.004475