TITLE="(Vx,Vy)"
VARIABLES=X,Y,Hx,Hy,Hm
ZONE T="T-Dummy" I=83, J=30, F=POINT
0.063333 0.052410 0.000000 0.000000 0.000000
0.063333 0.157229 0.000000 0.000000 0.000000
0.063333 0.262048 0.000000 0.000000 0.000000
0.063333 0.366867 0.000000 0.000000 0.000000
0.063333 0.471687 0.000000 0.000000 0.000000
0.063333 0.576506 0.000000 0.000000 0.000000
0.063333 0.681325 0.000000 0.000000 0.000000
0.063333 0.786145 0.000000 0.000000 0.000000
0.063333 0.890964 0.000000 0.000000 0.000000
0.063333 0.995783 0.000000 0.000000 0.000000
0.063333 1.100602 0.000000 0.000000 0.000000
0.063333 1.205422 0.000000 0.000000 0.000000
0.063333 1.310241 0.000000 0.000000 0.000000
0.063333 1.415060 0.000000 0.000000 0.000000
0.063333 1.519880 0.000000 0.000000 0.000000
0.063333 1.624699 0.000000 0.000000 0.000000
0.063333 1.729518 0.000000 0.000000 0.000000
0.063333 1.834337 0.000000 0.000000 0.000000
0.063333 1.939157 0.000000 0.000000 0.000000
0.063333 2.043976 0.000000 0.000000 0.000000
0.063333 2.148795 0.000000 0.000000 0.000000
0.063333 2.253614 0.000000 0.000000 0.000000
0.063333 2.358434 0.000000 0.000000 0.000000
0.063333 2.463253 0.000000 0.000000 0.000000
0.063333 2.568072 0.000000 0.000000 0.000000
0.063333 2.672892 0.000000 0.000000 0.000000
0.063333 2.777711 0.000000 0.000000 0.000000
0.063333 2.882530 0.000000 0.000000 0.000000
0.063333 2.987349 0.000000 0.000000 0.000000
0.063333 3.092169 0.000000 0.000000 0.000000
0.063333 3.196988 0.000000 0.000000 0.000000
0.063333 3.301807 0.000000 0.000000 0.000000
0.063333 3.406627 0.000000 0.000000 0.000000
0.063333 3.511446 0.000000 0.000000 0.000000
0.063333 3.616265 0.000000 0.000000 0.000000
0.063333 3.721084 0.000000 0.000000 0.000000
0.063333 3.825904 0.000000 0.000000 0.000000
0.063333 3.930723 0.000000 0.000000 0.000000
0.063333 4.035542 0.000000 0.000000 0.000000
0.063333 4.140361 0.000000 0.000000 0.000000
0.063333 4.245181 0.000000 0.000000 0.000000
0.063333 4.350000 0.000000 0.000000 0.000000
0.063333 4.454819 0.000000 0.000000 0.000000
0.063333 4.559639 0.000000 0.000000 0.000000
0.063333 4.664458 0.000000 0.000000 0.000000
0.063333 4.769277 0.000000 0.000000 0.000000
0.063333 4.874096 0.000000 0.000000 0.000000
0.063333 4.978916 0.000000 0.000000 0.000000
0.063333 5.083735 0.000000 0.000000 0.000000
0.063333 5.188554 0.000000 0.000000 0.000000
0.063333 5.293373 0.000000 0.000000 0.000000
0.063333 5.398193 0.000000 0.000000 0.000000
0.063333 5.503012 0.000000 0.000000 0.000000
0.063333 5.607831 0.000000 0.000000 0.000000
0.063333 5.712651 0.000000 0.000000 0.000000
0.063333 5.817470 0.000000 0.000000 0.000000
0.063333 5.922289 0.000000 0.000000 0.000000
0.063333 6.027108 0.000000 0.000000 0.000000
0.063333 6.131928 0.000000 0.000000 0.000000
0.063333 6.236747 0.000000 0.000000 0.000000
0.063333 6.341566 0.000000 0.000000 0.000000
0.063333 6.446386 0.000000 0.000000 0.000000
0.063333 6.551205 0.000000 0.000000 0.000000
0.063333 6.656024 0.000000 0.000000 0.000000
0.063333 6.760843 0.000000 0.000000 0.000000
0.063333 6.865663 0.000000 0.000000 0.000000
0.063333 6.970482 0.000000 0.000000 0.000000
0.063333 7.075301 0.000000 0.000000 0.000000
0.063333 7.180120 0.000000 0.000000 0.000000
0.063333 7.284940 0.000000 0.000000 0.000000
0.063333 7.389759 0.000000 0.000000 0.000000
0.063333 7.494578 0.000000 0.000000 0.000000
0.063333 7.599398 0.000000 0.000000 0.000000
0.063333 7.704217 0.000000 0.000000 0.000000
0.063333 7.809036 0.000000 0.000000 0.000000
0.063333 7.913855 0.000000 0.000000 0.000000
0.063333 8.018675 0.000000 0.000000 0.000000
0.063333 8.123494 0.000000 0.000000 0.000000
0.063333 8.228313 0.000000 0.000000 0.000000
0.063333 8.333133 0.000000 0.000000 0.000000
0.063333 8.437952 0.000000 0.000000 0.000000
0.063333 8.542771 0.000000 0.000000 0.000000
0.063333 8.647590 0.000000 0.000000 0.000000
0.190000 0.052410 0.000000 0.000000 0.000000
0.190000 0.157229 28.733469 -18.428366 34.136208
0.190000 0.262048 54.494904 -19.249878 57.795731
0.190000 0.366867 51.215340 -19.912788 54.951553
0.190000 0.471687 53.029083 -19.430759 56.484962
0.190000 0.576506 60.211525 -19.074432 63.188660
0.190000 0.681325 71.467926 -21.392548 74.649292
0.190000 0.786145 81.280403 -27.530329 85.871201
0.190000 0.890964 83.044769 -35.653809 90.427147
0.190000 0.995783 74.290382 -41.845982 85.310928
0.190000 1.100602 59.493179 -43.061790 73.483170
0.190000 1.205422 46.830772 -39.481918 61.299995
0.190000 1.310241 42.125725 -34.429699 54.480583
0.190000 1.415060 45.043678 -31.858513 55.282066
0.190000 1.519880 49.679779 -33.431709 60.002602
0.190000 1.624699 49.293488 -37.745792 62.197563
0.190000 1.729518 41.538918 -41.124317 58.545639
0.190000 1.834337 30.478245 -40.473480 50.738323
0.190000 1.939157 23.359810 -35.822845 42.838631
0.190000 2.043976 24.963129 -30.291178 39.374443
0.190000 2.148795 33.937546 -27.629856 43.940773
0.190000 2.253614 43.947311 -29.376238 53.038078
0.190000 2.358434 48.392029 -34.069416 59.339714
0.190000 2.463253 45.199097 -38.066956 59.233681
0.190000 2.568072 38.194469 -38.419819 54.306389
0.190000 2.672892 34.617249 -34.602959 49.093575
0.190000 2.777711 39.370560 -30.043142 49.707771
0.190000 2.882530 50.541885 -28.675400 58.298454
0.190000 2.987349 61.465683 -31.628656 69.295120
0.190000 3.092169 65.671059 -37.411041 75.732391
0.190000 3.196988 61.446800 -42.189369 74.678528
0.190000 3.301807 53.388992 -42.810322 68.571190
0.190000 3.406627 48.798420 -39.104637 62.678604
0.190000 3.511446 50.463089 -33.825996 60.913113
0.190000 3.616265 56.807739 -31.512247 65.130600
0.190000 3.721084 63.456520 -33.531059 71.928825
0.190000 3.825904 64.311180 -38.319950 75.010040
0.190000 3.930723 57.689537 -42.210060 71.622925
0.190000 4.035542 47.929329 -42.143120 63.958954
0.190000 4.140361 42.067089 -38.133347 56.926353
0.190000 4.245181 44.446999 -33.229164 55.666515
0.190000 4.350000 53.450459 -31.045839 61.987785
0.190000 4.454819 62.872169 -33.041763 71.186920
0.190000 4.559639 66.504379 -37.782635 76.636696
0.190000 4.664458 62.731483 -41.666176 75.450546
0.190000 4.769277 55.925777 -41.642929 69.869644
0.190000 4.874096 53.147293 -37.746315 65.342140
0.190000 4.978916 58.762703 -33.052830 67.585007
0.190000 5.083735 71.184059 -31.231152 77.887344
0.190000 5.188554 84.132957 -33.900131 90.841896
0.190000 5.293373 90.593422 -39.916306 99.123634
0.190000 5.398193 86.370178 -44.623215 97.339050
0.190000 5.503012 76.027222 -45.766907 88.868439
0.190000 5.607831 68.771088 -43.024353 81.258972
0.190000 5.712651 69.045883 -39.235359 79.561371
0.190000 5.817470 75.346909 -37.906548 84.489044
0.190000 5.922289 81.760811 -40.506378 91.381256
0.190000 6.027108 82.419220 -45.728569 94.386597
0.190000 6.131928 75.956177 -50.165459 91.156067
0.190000 6.236747 66.807617 -50.948021 84.146591
0.190000 6.341566 61.706963 -48.252441 78.463654
0.190000 6.446386 60.759487 -45.272873 75.912674
0.190000 6.551205 61.668549 -44.937717 76.456032
0.190000 6.656024 61.927345 -48.408142 78.753380
0.190000 6.760843 55.956825 -54.343956 78.147949
0.190000 6.865663 42.505531 -59.434959 73.198181
0.190000 6.970482 25.892326 -60.894943 66.267090
0.190000 7.075301 12.679998 -58.868401 60.284958
0.190000 7.180120 6.430640 -56.529625 56.951820
0.190000 7.284940 4.027456 -57.861008 58.058640
0.190000 7.389759 -4.462111 -60.941666 61.149597
0.190000 7.494578 -23.552902 -66.620880 70.677231
0.190000 7.599398 -49.783478 -71.055695 86.760323
0.190000 7.704217 -78.037277 -70.604080 105.240540
0.190000 7.809036 -100.863251 -64.750137 119.868942
0.190000 7.913855 -112.505386 -56.043045 125.704872
0.190000 8.018675 -112.860703 -47.878300 122.607864
0.190000 8.123494 -107.089890 -43.110840 115.448959
0.190000 8.228313 -98.518646 -38.311401 105.709045
0.190000 8.333133 -91.078857 -32.476898 96.697235
0.190000 8.437952 -86.892868 -27.694246 91.200279
0.190000 8.542771 -42.581413 -24.710188 49.232681
0.190000 8.647590 0.000000 0.000000 0.000000
0.316667 0.052410 0.000000 0.000000 0.000000
0.316667 0.157229 31.322144 -33.373531 45.776588
0.316667 0.262048 56.468758 -32.004059 64.920013
0.316667 0.366867 47.027634 -25.748779 53.658115
0.316667 0.471687 44.849579 -11.626778 46.689030
0.316667 0.576506 54.009232 2.625699 54.967133
0.316667 0.681325 74.282578 6.190314 75.462250
0.316667 0.786145 95.231346 -6.945094 96.254379
0.316667 0.890964 102.449295 -31.010284 107.656113
0.316667 0.995783 88.303154 -51.332973 102.627670
0.316667 1.100602 61.445190 -53.990978 82.214439
0.316667 1.205422 40.195900 -39.054550 56.627106
0.316667 1.310241 36.013229 -20.328377 42.771545
0.316667 1.415060 46.877731 -11.783365 49.931053
0.316667 1.519880 60.639366 -18.678354 64.635185
0.316667 1.624699 63.572971 -36.265495 74.042412
0.316667 1.729518 49.438499 -51.110413 71.668770
0.316667 1.834337 26.715824 -49.776733 56.807060
0.316667 1.939157 12.368433 -32.336014 34.926392
0.316667 2.043976 16.167112 -12.297343 22.945736
0.316667 2.148795 34.180073 -3.248410 36.531387
0.316667 2.253614 53.643768 -10.209466 55.996689
0.316667 2.358434 61.381504 -28.275743 68.598320
0.316667 2.463253 52.301025 -43.870193 69.019463
0.316667 2.568072 34.101532 -43.322071 55.761314
0.316667 2.672892 23.685951 -26.912241 36.951042
0.316667 2.777711 31.678486 -8.789062 35.053734
0.316667 2.882530 52.526627 -3.141160 54.078407
0.316667 2.987349 72.838394 -13.256596 75.081192
0.316667 3.092169 79.896881 -34.639343 87.916733
0.316667 3.196988 68.927010 -53.172710 87.722145
0.316667 3.301807 49.142017 -55.360161 74.597008
0.316667 3.406627 36.898674 -40.881203 55.825260
0.316667 3.511446 40.847527 -22.630949 48.033821
0.316667 3.616265 56.730682 -15.024070 59.910629
0.316667 3.721084 72.659248 -22.849480 77.108482
0.316667 3.825904 76.285851 -41.236206 87.473114
0.316667 3.930723 63.184776 -57.005913 85.694778
0.316667 4.035542 42.367535 -56.899628 71.425941
0.316667 4.140361 30.066483 -40.980614 51.476437
0.316667 4.245181 35.186928 -22.511688 43.161079
0.316667 4.350000 53.246948 -14.604116 56.497375
0.316667 4.454819 71.742607 -22.043232 76.006470
0.316667 4.559639 78.169144 -40.121124 88.625397
0.316667 4.664458 68.058701 -55.783409 88.622849
0.316667 4.769277 50.392227 -55.762871 75.730583
0.316667 4.874096 41.406837 -40.157719 58.492481
0.316667 4.978916 50.052658 -22.260401 55.996895
0.316667 5.083735 72.020668 -15.193437 74.593109
0.316667 5.188554 95.036964 -23.869417 98.733673
0.316667 5.293373 104.335464 -43.904480 113.820862
0.316667 5.398193 93.540375 -62.881599 113.269028
0.316667 5.503012 72.774353 -66.946114 99.408157
0.316667 5.607831 59.103607 -54.988823 81.345016
0.316667 5.712651 61.692200 -39.884365 74.279388
0.316667 5.817470 76.411163 -34.455597 84.623779
0.316667 5.922289 91.296646 -43.519005 101.807617
0.316667 6.027108 94.440338 -62.748043 113.936676
0.316667 6.131928 81.838715 -79.721680 114.695877
0.316667 6.236747 62.524979 -81.799561 103.334557
0.316667 6.341566 52.280800 -69.419144 87.315338
0.316667 6.446386 54.625916 -56.086021 78.864960
0.316667 6.551205 63.819393 -53.557014 83.959610
0.316667 6.656024 71.901321 -64.905029 97.412460
0.316667 6.760843 67.692535 -85.796669 109.676918
0.316667 6.865663 47.686996 -104.178131 114.791222
0.316667 6.970482 20.782213 -107.813217 109.881302
0.316667 7.075301 2.542227 -96.974380 97.032654
0.316667 7.180120 1.115797 -84.634651 84.665649
0.316667 7.284940 5.787517 -84.151382 84.405968
0.316667 7.389759 2.445244 -95.822365 95.907578
0.316667 7.494578 -15.694391 -116.546112 117.610306
0.316667 7.599398 -50.078804 -133.518982 142.604828
0.316667 7.704217 -90.523972 -133.249634 161.135529
0.316667 7.809036 -120.187622 -114.581528 166.161530
0.316667 7.913855 -129.361618 -89.044846 157.197968
0.316667 8.018675 -120.836548 -68.953743 139.278259
0.316667 8.123494 -109.419739 -61.659351 125.693512
0.316667 8.228313 -103.031250 -59.766930 119.151352
0.316667 8.333133 -98.318901 -57.214054 113.768906
0.316667 8.437952 -95.857742 -52.079628 109.099854
0.316667 8.542771 -47.679352 -47.532738 67.330727
0.316667 8.647590 0.000000 0.000000 0.000000
0.443333 0.052410 0.000000 0.000000 0.000000
0.443333 0.157229 34.538010 -27.144230 43.964409
0.443333 0.262048 54.119507 -18.890177 57.411697
0.443333 0.366867 26.966747 5.678233 29.292618
0.443333 0.471687 13.612037 52.869583 55.887314
0.443333 0.576506 28.968090 99.943359 104.813591
0.443333 0.681325 74.599503 124.431313 145.867126
0.443333 0.786145 127.615723 109.396774 169.043427
0.443333 0.890964 152.486542 65.843262 167.312973
0.443333 0.995783 123.607399 24.189966 127.717239
0.443333 1.100602 61.163368 20.674070 67.748466
0.443333 1.205422 17.183563 55.784088 58.950790
0.443333 1.310241 17.197182 94.994232 96.660019
0.443333 1.415060 50.686371 111.292900 122.572441
0.443333 1.519880 89.844467 96.064240 132.144531
0.443333 1.624699 103.621490 57.389275 119.600937
0.443333 1.729518 71.649223 21.680773 77.152298
0.443333 1.834337 14.060526 23.117685 29.562075
0.443333 1.939157 -20.042835 61.597343 65.042450
0.443333 2.043976 -8.211876 102.821991 103.161774
0.443333 2.148795 34.722141 120.217758 125.207565
0.443333 2.253614 79.889984 105.389740 132.625397
0.443333 2.358434 97.445221 66.581627 118.917755
0.443333 2.463253 69.588120 30.484724 77.881516
0.443333 2.568072 17.209026 32.114338 37.523212
0.443333 2.672892 -10.547400 70.462349 71.343292
0.443333 2.777711 8.809272 110.696342 111.047447
0.443333 2.882530 56.423996 126.101753 138.277573
0.443333 2.987349 102.745674 107.940063 149.413727
0.443333 3.092169 119.696869 63.561195 136.369843
0.443333 3.196988 90.272903 22.173595 94.653854
0.443333 3.301807 36.283718 17.571468 43.522011
0.443333 3.406627 4.880267 50.556362 50.791637
0.443333 3.511446 17.159599 87.429108 89.117203
0.443333 3.616265 57.616543 101.849091 117.221588
0.443333 3.721084 98.268631 85.525726 130.795044
0.443333 3.825904 110.972168 46.286842 121.240372
0.443333 3.930723 79.853783 9.760105 82.444000
0.443333 4.035542 25.843376 9.714073 32.440414
0.443333 4.140361 -4.319524 46.010025 46.328857
0.443333 4.245181 10.016866 84.862770 85.454269
0.443333 4.350000 52.936699 100.633110 113.889938
0.443333 4.454819 96.319229 85.343315 129.202652
0.443333 4.559639 112.061935 46.830914 122.439499
0.443333 4.664458 84.311829 10.583876 86.861923
0.443333 4.769277 33.904671 10.425044 39.430420
0.443333 4.874096 7.487353 46.202702 46.817917
0.443333 4.978916 25.676678 84.141006 88.031799
0.443333 5.083735 72.679283 98.758804 122.898346
0.443333 5.188554 120.699158 82.143723 146.543335
0.443333 5.293373 141.474564 42.058964 148.452942
0.443333 5.398193 115.625221 1.757773 117.036087
0.443333 5.503012 62.215103 -5.977372 65.125977
0.443333 5.607831 30.010330 23.508312 40.160881
0.443333 5.712651 40.552074 56.760788 70.210953
0.443333 5.817470 78.548904 68.564331 104.824722
0.443333 5.922289 116.833328 50.889660 128.216812
0.443333 6.027108 128.450424 11.001718 130.009491
0.443333 6.131928 98.640533 -26.716078 103.749977
0.443333 6.236747 48.107353 -29.727262 58.956047
0.443333 6.341566 22.487900 1.620374 28.154213
0.443333 6.446386 35.776985 34.334961 50.717751
0.443333 6.551205 68.637741 40.161289 80.586197
0.443333 6.656024 98.317596 18.891247 101.347504
0.443333 6.760843 100.716293 -23.081299 104.749588
0.443333 6.865663 62.616432 -62.309010 89.523880
0.443333 6.970482 4.373186 -67.398849 67.644554
0.443333 7.075301 -29.360744 -38.540497 49.322533
0.443333 7.180120 -19.513746 -7.497803 26.288935
0.443333 7.284940 9.256909 1.649960 19.159067
0.443333 7.389759 25.933928 -22.834089 37.877899
0.443333 7.494578 10.611963 -65.488998 66.651688
0.443333 7.599398 -45.400093 -103.367722 112.983452
0.443333 7.704217 -120.151993 -104.557922 159.717422
0.443333 7.809036 -167.715240 -67.723923 181.541077
0.443333 7.913855 -168.028732 -23.165239 170.451431
0.443333 8.018675 -137.189087 4.763744 138.228912
0.443333 8.123494 -107.518936 4.644597 108.424408
0.443333 8.228313 -96.746338 -13.729164 98.087982
0.443333 8.333133 -98.708191 -34.960152 104.813385
0.443333 8.437952 -106.607025 -41.693573 114.506226
0.443333 8.542771 -55.513222 -41.521957 69.349686
0.443333 8.647590 0.000000 0.000000 0.000000
0.570000 0.052410 0.000000 0.000000 0.000000
0.570000 0.157229 34.698250 -21.020985 40.628384
0.570000 0.262048 36.681614 -7.112579 37.638428
0.570000 0.366867 -27.844795 29.931236 40.982239
0.570000 0.471687 -62.823494 98.568024 117.000946
0.570000 0.576506 -33.832165 169.655579 173.319061
0.570000 0.681325 61.389458 218.240768 227.353882
0.570000 0.786145 178.850555 206.813400 274.327545
0.570000 0.890964 242.280884 154.659149 288.566406
0.570000 0.995783 185.054977 102.152565 212.943329
0.570000 1.100602 49.019440 97.817062 110.267693
0.570000 1.205422 -35.688702 142.576736 147.074280
0.570000 1.310241 -21.162483 190.935059 192.115631
0.570000 1.415060 55.826900 210.588684 217.949310
0.570000 1.519880 142.423080 191.802948 239.309906
0.570000 1.624699 180.416351 143.763779 231.493622
0.570000 1.729518 114.372986 98.008911 151.847595
0.570000 1.834337 -15.660023 99.449280 100.788635
0.570000 1.939157 -86.161217 147.907288 171.662704
0.570000 2.043976 -54.115608 198.405502 205.762756
0.570000 2.148795 35.520325 219.291183 222.167175
0.570000 2.253614 128.446716 201.055939 238.863342
0.570000 2.358434 168.801178 153.048462 228.507141
0.570000 2.463253 106.257637 106.956589 151.711090
0.570000 2.568072 -17.752960 108.158142 109.773788
0.570000 2.672892 -80.513428 156.392334 176.368729
0.570000 2.777711 -39.715485 206.642532 210.510040
0.570000 2.882530 56.936550 227.674362 234.714752
0.570000 2.987349 155.221527 208.129608 259.916901
0.570000 3.092169 196.618515 157.168045 252.306580
0.570000 3.196988 133.022797 105.811813 170.891098
0.570000 3.301807 8.627684 98.710464 99.093216
0.570000 3.406627 -58.348785 138.787537 151.023529
0.570000 3.511446 -26.142929 182.595154 184.538620
0.570000 3.616265 59.585892 199.257660 208.017929
0.570000 3.721084 145.913086 179.061401 231.308594
0.570000 3.825904 179.810303 130.605850 222.919830
0.570000 3.930723 114.812531 84.248489 143.543198
0.570000 4.035542 -8.392885 83.948730 84.531982
0.570000 4.140361 -72.162079 129.484558 148.849747
0.570000 4.245181 -36.344261 176.977234 180.785889
0.570000 4.350000 52.687408 195.900192 202.895630
0.570000 4.454819 142.212646 177.201035 227.535370
0.570000 4.559639 179.590302 129.721344 222.226837
0.570000 4.664458 118.634201 83.715416 146.336945
0.570000 4.769277 -0.165093 83.196373 83.263771
0.570000 4.874096 -59.544472 128.019608 141.755386
0.570000 4.978916 -19.514648 174.301971 175.466492
0.570000 5.083735 73.723740 191.771988 205.521362
0.570000 5.188554 167.966202 171.396759 240.341064
0.570000 5.293373 211.111923 121.911880 244.455429
0.570000 5.398193 156.464600 72.601540 173.614716
0.570000 5.503012 37.610859 64.171371 74.841675
0.570000 5.607831 -29.565521 101.710434 106.430435
0.570000 5.712651 0.204712 142.456345 142.496613
0.570000 5.817470 81.689636 156.512711 176.684479
0.570000 5.922289 163.633682 134.830811 212.509857
0.570000 6.027108 195.345917 85.679581 214.135437
0.570000 6.131928 133.036102 38.085983 139.935333
0.570000 6.236747 16.292761 34.377693 38.658112
0.570000 6.341566 -41.035759 74.249641 86.019485
0.570000 6.446386 -1.716579 115.222504 115.283585
0.570000 6.551205 77.705215 123.232704 145.949280
0.570000 6.656024 146.761200 97.498222 176.895447
0.570000 6.760843 166.014069 46.077362 173.430420
0.570000 6.865663 94.419380 -3.180289 97.026932
0.570000 6.970482 -29.434864 -9.273647 37.312199
0.570000 7.075301 -94.078812 27.693621 100.410843
0.570000 7.180120 -63.120483 66.655106 93.252014
0.570000 7.284940 13.638559 79.415825 80.596542
0.570000 7.389759 72.980377 51.324589 90.761490
0.570000 7.494578 67.462891 -1.613532 71.128616
0.570000 7.599398 -26.946163 -50.143925 57.754250
0.570000 7.704217 -170.615143 -52.804695 179.943222
0.570000 7.809036 -250.456696 -8.336513 251.743332
0.570000 7.913855 -228.403595 43.712975 233.865631
0.570000 8.018675 -153.395203 73.360146 171.748627
0.570000 8.123494 -85.647202 65.274948 109.543427
0.570000 8.228313 -60.133354 29.632433 68.846954
0.570000 8.333133 -75.038101 -7.879522 75.820175
0.570000 8.437952 -107.617523 -24.327995 110.408249
0.570000 8.542771 -61.463223 -30.899559 68.852951
0.570000 8.647590 0.000000 0.000000 0.000000
0.696667 0.052410 0.000000 0.000000 0.000000
0.696667 0.157229 32.356644 -21.462940 38.838905
0.696667 0.262048 14.838849 -7.336615 16.571743
0.696667 0.366867 -86.494507 25.629990 90.251633
0.696667 0.471687 -146.140259 80.796211 166.988342
0.696667 0.576506 -114.090988 139.116287 180.106750
0.696667 0.681325 29.655849 181.727600 185.275085
0.696667 0.786145 215.267944 175.110199 278.369324
0.696667 0.890964 309.524048 135.959305 338.788086
0.696667 0.995783 227.321838 96.694168 247.955994
0.696667 1.100602 33.936153 94.571281 100.791824
0.696667 1.205422 -83.043221 130.470383 155.048370
0.696667 1.310241 -56.004787 169.294464 178.422501
0.696667 1.415060 58.226959 185.741638 194.731293
0.696667 1.519880 183.536377 171.897888 251.843018
0.696667 1.624699 237.722351 135.316147 274.083466
0.696667 1.729518 143.181396 100.655029 175.812775
0.696667 1.834337 -42.277565 102.402527 111.134056
0.696667 1.939157 -141.660522 140.326172 199.944458
0.696667 2.043976 -93.859283 180.002655 203.223053
0.696667 2.148795 35.027004 196.782303 199.890274
0.696667 2.253614 167.407288 182.922546 248.258392
0.696667 2.358434 224.010834 146.131317 267.947815
0.696667 2.463253 133.174347 111.103882 174.084457
0.696667 2.568072 -45.697403 112.190674 121.529099
0.696667 2.672892 -136.925262 149.281372 203.124786
0.696667 2.777711 -80.396172 188.350433 204.995148
0.696667 2.882530 55.444489 204.985016 212.373138
0.696667 2.987349 192.896942 191.260803 271.907532
0.696667 3.092169 253.230621 155.082520 297.355164
0.696667 3.196988 167.300873 117.539810 205.016632
0.696667 3.301807 -8.857302 113.140121 113.603836
0.696667 3.406627 -105.261299 141.571777 176.996841
0.696667 3.511446 -59.847420 173.557068 183.782532
0.696667 3.616265 62.269577 185.400024 195.611084
0.696667 3.721084 185.729858 169.127380 251.487244
0.696667 3.825904 234.683411 131.507584 269.473633
0.696667 3.930723 141.911438 95.973892 171.980804
0.696667 4.035542 -34.556694 95.725258 102.214378
0.696667 4.140361 -125.822525 130.449768 181.881500
0.696667 4.245181 -74.523468 167.070053 183.180481
0.696667 4.350000 52.501961 181.822601 189.276489
0.696667 4.454819 180.109406 167.272095 246.099823
0.696667 4.559639 233.278503 130.655762 267.837646
0.696667 4.664458 145.369110 95.461113 174.574951
0.696667 4.769277 -25.842180 94.905647 98.730484
0.696667 4.874096 -112.084892 128.877899 171.469269
0.696667 4.978916 -56.241226 164.312057 173.886444
0.696667 5.083735 75.170059 177.705673 193.002075
0.696667 5.188554 207.815308 161.625076 263.567749
0.696667 5.293373 267.746704 123.259132 295.179901
0.696667 5.398193 188.698395 85.521225 207.794861
0.696667 5.503012 19.509125 80.248726 82.586411
0.696667 5.607831 -75.078400 107.961807 132.293457
0.696667 5.712651 -31.555172 138.370056 142.123779
0.696667 5.817470 85.585136 148.488358 171.487289
0.696667 5.922289 203.509552 130.941238 242.345001
0.696667 6.027108 249.965546 92.529449 267.011841
0.696667 6.131928 161.483917 55.818230 171.634613
0.696667 6.236747 -5.615347 52.616417 53.348183
0.696667 6.341566 -88.198700 82.610062 121.913055
0.696667 6.446386 -31.732677 113.687401 118.291458
0.696667 6.551205 85.167770 121.976929 148.954117
0.696667 6.656024 189.013428 100.983696 214.736359
0.696667 6.760843 221.527740 60.244297 230.139374
0.696667 6.865663 123.359772 21.604986 126.388374
0.696667 6.970482 -50.561630 16.143997 56.054363
0.696667 7.075301 -140.896210 43.808685 148.604950
0.696667 7.180120 -95.385971 73.573036 121.408638
0.696667 7.284940 17.640944 83.615982 85.478836
0.696667 7.389759 113.072906 66.906036 132.136536
0.696667 7.494578 119.418587 22.435432 122.757416
0.696667 7.599398 -5.212766 -16.916891 20.632257
0.696667 7.704217 -202.839203 -20.435230 204.738129
0.696667 7.809036 -312.089783 12.457929 312.967621
0.696667 7.913855 -277.511505 52.141640 283.147705
0.696667 8.018675 -164.057159 75.359238 182.128052
0.696667 8.123494 -56.188576 69.676476 92.910400
0.696667 8.228313 -16.378002 39.449150 47.112099
0.696667 8.333133 -46.708820 5.289800 48.003052
0.696667 8.437952 -100.861465 -15.076929 102.069504
0.696667 8.542771 -62.297714 -22.643047 66.359184
0.696667 8.647590 0.000000 0.000000 0.000000
0.823333 0.052410 0.000000 0.000000 0.000000
0.823333 0.157229 30.618134 -36.649315 47.806091
0.823333 0.262048 0.810892 -26.626038 29.800156
0.823333 0.366867 -118.984421 -5.481334 119.237717
0.823333 0.471687 -188.279144 24.584770 189.905640
0.823333 0.576506 -150.189621 52.020386 158.945831
0.823333 0.681325 19.296173 64.476013 70.505569
0.823333 0.786145 235.905991 58.153351 243.225861
0.823333 0.890964 342.739868 36.123158 344.778656
0.823333 0.995783 244.368774 15.658573 245.057739
0.823333 1.100602 19.063580 17.440458 26.845873
0.823333 1.205422 -115.872604 41.825172 123.486969
0.823333 1.310241 -80.983658 67.744164 105.799591
0.823333 1.415060 56.241047 79.806381 97.746941
0.823333 1.519880 204.560486 73.038605 217.360626
0.823333 1.624699 266.777283 52.296051 272.000122
0.823333 1.729518 155.354431 32.742329 159.028824
0.823333 1.834337 -60.710487 35.177715 70.693062
0.823333 1.939157 -176.475220 59.387520 186.419342
0.823333 2.043976 -119.688454 84.684082 146.819611
0.823333 2.148795 32.951553 96.001686 101.521660
0.823333 2.253614 188.857651 88.440826 208.685608
0.823333 2.358434 253.914459 66.939995 262.741455
0.823333 2.463253 146.491730 46.630104 153.996017
0.823333 2.568072 -62.807983 48.061859 79.598488
0.823333 2.672892 -170.573654 71.134232 185.063385
0.823333 2.777711 -105.625565 95.543800 142.652313
0.823333 2.882530 53.421814 106.401520 119.085159
0.823333 2.987349 214.090942 98.851593 235.932343
0.823333 3.092169 283.607666 77.703682 294.190948
0.823333 3.196988 182.471619 57.070320 191.387039
0.823333 3.301807 -19.878212 57.330276 61.050171
0.823333 3.406627 -129.961655 75.119820 150.442291
0.823333 3.511446 -78.154320 93.980225 122.485153
0.823333 3.616265 64.873093 100.653313 119.783722
0.823333 3.721084 209.790619 90.410141 228.564972
0.823333 3.825904 266.259430 67.582634 274.838623
0.823333 3.930723 156.930054 46.374115 163.869827
0.823333 4.035542 -49.415150 46.592003 68.516106
0.823333 4.140361 -156.889526 67.922951 171.239975
0.823333 4.245181 -97.457802 90.530807 133.264618
0.823333 4.350000 52.147640 99.876907 112.698036
0.823333 4.454819 202.403595 91.228073 222.141144
0.823333 4.559639 263.928558 69.225700 272.996033
0.823333 4.664458 160.236923 48.252022 167.573059
0.823333 4.769277 -40.139687 48.148434 63.311352
0.823333 4.874096 -142.131714 68.809250 158.233215
0.823333 4.978916 -77.977997 90.509567 119.744965
0.823333 5.083735 76.049889 98.922180 124.820541
0.823333 5.188554 231.410233 89.378860 248.183136
0.823333 5.293373 300.019714 66.660851 307.454468
0.823333 5.398193 206.184540 45.230553 211.262833
0.823333 5.503012 10.104347 44.509827 45.731651
0.823333 5.607831 -99.206726 59.219749 116.002930
0.823333 5.712651 -48.832100 76.398628 91.017021
0.823333 5.817470 89.057449 81.919937 121.073433
0.823333 5.922289 228.087631 70.850441 238.949768
0.823333 6.027108 282.172180 47.443306 286.250488
0.823333 6.131928 178.252350 25.493782 180.263245
0.823333 6.236747 -17.061298 24.003384 30.791773
0.823333 6.341566 -114.971146 42.968697 123.126587
0.823333 6.446386 -50.432472 63.725906 81.645500
0.823333 6.551205 90.017502 72.734406 115.816772
0.823333 6.656024 216.802795 57.172123 224.332626
0.823333 6.760843 256.547913 30.626415 258.494507
0.823333 6.865663 142.710449 6.378201 143.096649
0.823333 6.970482 -59.415390 2.698078 60.096500
0.823333 7.075301 -165.696671 19.457500 167.056015
0.823333 7.180120 -114.481049 38.126957 120.960068
0.823333 7.284940 16.105009 45.635109 48.402035
0.823333 7.389759 138.068985 38.405342 143.496185
0.823333 7.494578 157.277435 10.969303 157.878265
0.823333 7.599398 13.033348 -14.356563 20.674198
0.823333 7.704217 -216.113556 -17.625437 216.996735
0.823333 7.809036 -344.351410 1.415744 344.468262
0.823333 7.913855 -306.455597 25.079941 307.630493
0.823333 8.018675 -175.199860 40.054077 180.171860
0.823333 8.123494 -45.914055 40.847408 65.325089
0.823333 8.228313 8.235186 28.290257 34.576729
0.823333 8.333133 -22.753132 1.937675 24.760906
0.823333 8.437952 -93.966484 -16.667196 95.471550
0.823333 8.542771 -65.026031 -21.925377 68.661781
0.823333 8.647590 0.000000 0.000000 0.000000
0.950000 0.052410 0.000000 0.000000 0.000000
0.950000 0.157229 30.311420 -64.455795 71.370361
0.950000 0.262048 -4.982861 -59.374790 61.270702
0.950000 0.366867 -132.458618 -49.182701 141.543915
0.950000 0.471687 -201.590698 -36.181900 204.905365
0.950000 0.576506 -153.722107 -28.923817 156.579681
0.950000 0.681325 24.816101 -33.471230 44.309223
0.950000 0.786145 247.115692 -43.091232 250.844849
0.950000 0.890964 355.537567 -54.995621 359.766907
0.950000 0.995783 247.371674 -62.186867 255.069504
0.950000 1.100602 6.942627 -58.163109 58.576759
0.950000 1.205422 -136.171600 -43.118607 142.842941
0.950000 1.310241 -97.017059 -27.622204 100.887154
0.950000 1.415060 52.001808 -19.282902 55.493111
0.950000 1.519880 211.771088 -20.760500 212.795074
0.950000 1.624699 277.462677 -29.564058 279.039490
0.950000 1.729518 157.696442 -37.898014 162.197357
0.950000 1.834337 -72.754196 -34.893314 80.702011
0.950000 1.939157 -196.209808 -20.733450 197.312973
0.950000 2.043976 -134.831970 -6.214698 134.994720
0.950000 2.148795 29.928761 0.979577 30.040609
0.950000 2.253614 197.658401 -1.654844 197.681000
0.950000 2.358434 266.610901 -11.569872 266.873932
0.950000 2.463253 151.066986 -21.011070 152.545044
0.950000 2.568072 -72.652435 -19.239704 75.185776
0.950000 2.672892 -188.436310 -6.345677 188.561768
0.950000 2.777711 -119.514160 7.120801 119.760834
0.950000 2.882530 51.055275 13.642368 52.896553
0.950000 2.987349 223.169067 10.874548 223.451630