TITLE="(Vx,Vy)"
VARIABLES=X,MPR1,MPR2,MPR3,MPR4,MPR5
ZONE T="T-Dummy" I=1, J=1
0.000000 0.570731 0.570731 0.570731
0.005000 0.570731 0.570731 0.570731
0.005000 0.570731 0.570731 0.570731
0.010000 0.570731 0.570731 0.570731
0.010000 0.570731 0.570731 0.570731
0.015000 0.570731 0.570731 0.570731
0.015000 0.570731 0.570731 0.570731
0.020000 0.570731 0.570731 0.570731
0.020000 0.570731 0.570731 0.570731
0.025000 0.570731 0.570731 0.570731
0.025000 0.570731 0.570731 0.570731
0.030000 0.570731 0.570731 0.570731
0.030000 0.570731 0.570731 0.570731
0.035000 0.570731 0.570731 0.570731
0.035000 0.570731 0.570731 0.570731
0.040000 0.570731 0.570731 0.570731
0.040000 0.570731 0.570731 0.570731
0.045000 0.570731 0.570731 0.570731
0.045000 0.570731 0.570731 0.570731
0.050000 0.570731 0.570731 0.570731
0.050000 0.570731 0.570731 0.570731
0.055000 0.570731 0.570731 0.570731
0.055000 0.570731 0.570731 0.570731
0.060000 0.570731 0.570731 0.570731
0.060000 0.570731 0.570731 0.570731
0.065000 0.570731 0.570731 0.570731
0.065000 0.570731 0.570731 0.570731
0.070000 0.570731 0.570731 0.570731
0.070000 0.570731 0.570731 0.570731
0.075000 0.570731 0.570731 0.570731
0.075000 0.570731 0.570731 0.570731
0.080000 0.570731 0.570731 0.570731
0.080000 0.570731 0.570731 0.570731
0.085000 0.570731 0.570731 0.570731
0.085000 0.570731 0.570731 0.570731
0.090000 0.570731 0.570731 0.570731
0.090000 0.570731 0.570731 0.570731
0.095000 0.570731 0.570731 0.570731
0.095000 0.570731 0.570731 0.570731
0.100000 0.570731 0.570731 0.570731
0.100000 0.570731 0.570731 0.570731
0.105000 0.570731 0.570731 0.570731
0.105000 0.570731 0.570731 0.570731
0.110000 0.570731 0.570731 0.570731
0.110000 0.570731 0.570731 0.570731
0.115000 0.570731 0.570731 0.570731
0.115000 0.570731 0.570731 0.570731
0.120000 0.570731 0.570731 0.570731
0.120000 0.570731 0.570731 0.570731
0.125000 0.570731 0.570731 0.570731
0.125000 0.570731 0.570731 0.570731
0.130000 0.570731 0.570731 0.570731
0.130000 0.570731 0.570731 0.570731
0.135000 0.570731 0.570731 0.570731
0.135000 0.570731 0.570731 0.570731
0.140000 0.570731 0.570731 0.570731
0.140000 0.570731 0.570731 0.570731
0.145000 0.570731 0.570731 0.570731
0.145000 0.570731 0.570731 0.570731
0.150000 0.570731 0.570731 0.570731
0.150000 0.570731 0.570731 0.570731
0.155000 0.570731 0.570731 0.570731
0.155000 0.570731 0.570731 0.570731
0.160000 0.570731 0.570731 0.570731
0.160000 0.570731 0.570731 0.570731
0.165000 0.570731 0.570731 0.570731
0.165000 0.570731 0.570731 0.570731
0.170000 0.570731 0.570731 0.570731
0.170000 0.570731 0.570731 0.570731
0.175000 0.570731 0.570731 0.570731
0.175000 0.570731 0.570731 0.570731
0.180000 0.570731 0.570731 0.570731
0.180000 0.570731 0.570731 0.570731
0.185000 0.570731 0.570731 0.570731
0.185000 0.570731 0.570731 0.570731
0.190000 0.570731 0.570731 0.570731
0.190000 0.570731 0.570731 0.570731
0.195000 0.570731 0.570731 0.570731
0.195000 0.570731 0.570731 0.570731
0.200000 0.570731 0.570731 0.570731
0.200000 0.570731 0.570731 0.570731
0.205000 0.570731 0.570731 0.570731
0.205000 0.570731 0.570731 0.570731
0.210000 0.570731 0.570731 0.570731
0.210000 0.570731 0.570731 0.570731
0.215000 0.570731 0.570731 0.570731
0.215000 0.570731 0.570731 0.570731
0.220000 0.570731 0.570731 0.570731
0.220000 0.570731 0.570731 0.570731
0.225000 0.570731 0.570731 0.570731
0.225000 0.570731 0.570731 0.570731
0.230000 0.570731 0.570731 0.570731
0.230000 0.570731 0.570731 0.570731
0.235000 0.570731 0.570731 0.570731
0.235000 0.570731 0.570731 0.570731
0.240000 0.570731 0.570731 0.570731
0.240000 0.570731 0.570731 0.570731
0.245000 0.570731 0.570731 0.570731
0.245000 0.570731 0.570731 0.570731
0.250000 0.570731 0.570731 0.570731
0.250000 0.570731 0.570731 0.570731
0.255000 0.570731 0.570731 0.570731
0.255000 0.570731 0.570731 0.570731
0.260000 0.570731 0.570731 0.570731
0.260000 0.570731 0.570731 0.570731
0.265000 0.570731 0.570731 0.570731
0.265000 0.570731 0.570731 0.570731
0.270000 0.570731 0.570731 0.570731
0.270000 0.570731 0.570731 0.570731
0.275000 0.570731 0.570731 0.570731
0.275000 0.570731 0.570731 0.570731
0.280000 0.570731 0.570731 0.570731
0.280000 0.570731 0.570731 0.570731
0.285000 0.570731 0.570731 0.570731
0.285000 0.570731 0.570731 0.570731
0.290000 0.570731 0.570731 0.570731
0.290000 0.570731 0.570731 0.570731
0.295000 0.570731 0.570731 0.570731
0.295000 0.570731 0.570731 0.570731
0.300000 0.570731 0.570731 0.570731
0.300000 0.570731 0.570731 0.570731
0.305000 0.570731 0.570731 0.570731
0.305000 0.570731 0.570731 0.570731
0.310000 0.570731 0.570731 0.570731
0.310000 0.570731 0.570731 0.570731
0.315000 0.570731 0.570731 0.570731
0.315000 0.570731 0.570731 0.570731
0.320000 0.570731 0.570731 0.570731
0.320000 0.570731 0.570731 0.570731
0.325000 0.570731 0.570731 0.570731
0.325000 0.570731 0.570731 0.570731
0.330000 0.570731 0.570731 0.570731
0.330000 0.570731 0.570731 0.570731
0.335000 0.570731 0.570731 0.570731
0.335000 0.570731 0.570731 0.570731
0.340000 0.570731 0.570731 0.570731
0.340000 0.570731 0.570731 0.570731
0.345000 0.570731 0.570731 0.570731
0.345000 0.570731 0.570731 0.570731
0.350000 0.570731 0.570731 0.570731
0.350000 0.570731 0.570731 0.570731
0.355000 0.570731 0.570731 0.570731
0.355000 0.570731 0.570731 0.570731
0.360000 0.570731 0.570731 0.570731
0.360000 0.570731 0.570731 0.570731
0.365000 0.570731 0.570731 0.570731
0.365000 0.570731 0.570731 0.570731
0.370000 0.570731 0.570731 0.570731
0.370000 0.570731 0.570731 0.570731
0.375000 0.570731 0.570731 0.570731
0.375000 0.570731 0.570731 0.570731
0.380000 0.570731 0.570731 0.570731
0.380000 0.570731 0.570731 0.570731
0.385000 0.570731 0.570731 0.570731
0.385000 0.570731 0.570731 0.570731
0.390000 0.570731 0.570731 0.570731
0.390000 0.570731 0.570731 0.570731
0.395000 0.570731 0.570731 0.570731
0.395000 0.570731 0.570731 0.570731
0.400000 0.570731 0.570731 0.570731
0.400000 0.570731 0.570731 0.570731
0.405000 0.570731 0.570731 0.570731
0.405000 0.570731 0.570731 0.570731
0.410000 0.570731 0.570731 0.570731
0.410000 0.570731 0.570731 0.570731
0.415000 0.570731 0.570731 0.570731
0.415000 0.570731 0.570731 0.570731
0.420000 0.570731 0.570731 0.570731
0.420000 0.570731 0.570731 0.570731
0.425000 0.570731 0.570731 0.570731
0.425000 0.570731 0.570731 0.570731
0.430000 0.570731 0.570731 0.570731
0.430000 0.570731 0.570731 0.570731
0.435000 0.570731 0.570731 0.570731
0.435000 0.570731 0.570731 0.570731
0.440000 0.570731 0.570731 0.570731
0.440000 0.570731 0.570731 0.570731
0.445000 0.570731 0.570731 0.570731
0.445000 0.570731 0.570731 0.570731
0.450000 0.570731 0.570731 0.570731
0.450000 0.570731 0.570731 0.570731
0.455000 0.570731 0.570731 0.570731
0.455000 0.570731 0.570731 0.570731
0.460000 0.570731 0.570731 0.570731
0.460000 0.570731 0.570731 0.570731
0.465000 0.570731 0.570731 0.570731
0.465000 0.570731 0.570731 0.570731
0.470000 0.570731 0.570731 0.570731
0.470000 0.570731 0.570731 0.570731
0.475000 0.570731 0.570731 0.570731
0.475000 0.570731 0.570731 0.570731
0.480000 0.570731 0.570731 0.570731
0.480000 0.570731 0.570731 0.570731
0.485000 0.570731 0.570731 0.570731
0.485000 0.570731 0.570731 0.570731
0.490000 0.570731 0.570731 0.570731
0.490000 0.570731 0.570731 0.570731
0.495000 0.570731 0.570731 0.570731
0.495000 0.570731 0.570731 0.570731
0.500000 0.570731 0.570731 0.570731
0.500000 0.570731 0.570731 0.570731
0.505000 0.570731 0.570731 0.570731
0.505000 0.570731 0.570731 0.570731
0.510000 0.570731 0.570731 0.570731
0.510000 0.570731 0.570731 0.570731
0.515000 0.570731 0.570731 0.570731
0.515000 0.570731 0.570731 0.570731
0.520000 0.570731 0.570731 0.570731
0.520000 0.570731 0.570731 0.570731
0.525000 0.570731 0.570731 0.570731
0.525000 0.570731 0.570731 0.570731
0.530000 0.570731 0.570731 0.570731
0.530000 0.570731 0.570731 0.570731
0.535000 0.570731 0.570731 0.570731
0.535000 0.570731 0.570731 0.570731
0.540000 0.570731 0.570731 0.570731
0.540000 0.570731 0.570731 0.570731
0.545000 0.570731 0.570731 0.570731
0.545000 0.570731 0.570731 0.570731
0.550000 0.570731 0.570731 0.570731
0.550000 0.570731 0.570731 0.570731
0.555000 0.570731 0.570731 0.570731
0.555000 0.570731 0.570731 0.570731
0.560000 0.570731 0.570731 0.570731
0.560000 0.570731 0.570731 0.570731
0.565000 0.570731 0.570731 0.570731
0.565000 0.570731 0.570731 0.570731
0.570000 0.570731 0.570731 0.570731
0.570000 0.570731 0.570731 0.570731
0.575000 0.570731 0.570731 0.570731
0.575000 0.570731 0.570731 0.570731
0.580000 0.570731 0.570731 0.570731
0.580000 0.570731 0.570731 0.570731
0.585000 0.570731 0.570731 0.570731
0.585000 0.570731 0.570731 0.570731
0.590000 0.570731 0.570731 0.570731
0.590000 0.570731 0.570731 0.570731
0.595000 0.570731 0.570731 0.570731
0.595000 0.570731 0.570731 0.570731
0.600000 0.570731 0.570731 0.570731
0.600000 0.570731 0.570731 0.570731
0.605000 0.570731 0.570731 0.570731
0.605000 0.570731 0.570731 0.570731
0.610000 0.570731 0.570731 0.570731
0.610000 0.570731 0.570731 0.570731
0.615000 0.570731 0.570731 0.570731
0.615000 0.570731 0.570731 0.570731
0.620000 0.570731 0.570731 0.570731
0.620000 0.570731 0.570731 0.570731
0.625000 0.570731 0.570731 0.570731
0.625000 0.570731 0.570731 0.570731
0.630000 0.570731 0.570731 0.570731
0.630000 0.570731 0.570731 0.570731
0.635000 0.570731 0.570731 0.570731
0.635000 0.570731 0.570731 0.570731
0.640000 0.570731 0.570731 0.570731
0.640000 0.570731 0.570731 0.570731
0.645000 0.570731 0.570731 0.570731
0.645000 0.570731 0.570731 0.570731
0.650000 0.570731 0.570731 0.570731
0.650000 0.570731 0.570731 0.570731
0.655000 0.570731 0.570731 0.570731
0.655000 0.570731 0.570731 0.570731
0.660000 0.570731 0.570731 0.570731
0.660000 0.570731 0.570731 0.570731
0.665000 0.570731 0.570731 0.570731
0.665000 0.570731 0.570731 0.570731
0.670000 0.570731 0.570731 0.570731
0.670000 0.570731 0.570731 0.570731
0.675000 0.570731 0.570731 0.570731
0.675000 0.570731 0.570731 0.570731
0.680000 0.570731 0.570731 0.570731
0.680000 0.570731 0.570731 0.570731
0.685000 0.570731 0.570731 0.570731
0.685000 0.570731 0.570731 0.570731
0.690000 0.570731 0.570731 0.570731
0.690000 0.570731 0.570731 0.570731
0.695000 0.570731 0.570731 0.570731
0.695000 0.570731 0.570731 0.570731
0.700000 0.570731 0.570731 0.570731
0.700000 0.570731 0.570731 0.570731
0.705000 0.570731 0.570731 0.570731
0.705000 0.570731 0.570731 0.570731
0.710000 0.570731 0.570731 0.570731
0.710000 0.570731 0.570731 0.570731
0.715000 0.570731 0.570731 0.570731
0.715000 0.570731 0.570731 0.570731
0.720000 0.570731 0.570731 0.570731
0.720000 0.570731 0.570731 0.570731
0.725000 0.570731 0.570731 0.570731
0.725000 0.570731 0.570731 0.570731
0.730000 0.570731 0.570731 0.570731
0.730000 0.570731 0.570731 0.570731
0.735000 0.570731 0.570731 0.570731
0.735000 0.570731 0.570731 0.570731
0.740000 0.570731 0.570731 0.570731
0.740000 0.570731 0.570731 0.570731
0.745000 0.570731 0.570731 0.570731
0.745000 0.570731 0.570731 0.570731
0.750000 0.570731 0.570731 0.570731
0.750000 0.570731 0.570731 0.570731
0.755000 0.570731 0.570731 0.570731
0.755000 0.570731 0.570731 0.570731
0.760000 0.570731 0.570731 0.570731
0.760000 0.570731 0.570731 0.570731
0.765000 0.570731 0.570731 0.570731
0.765000 0.570731 0.570731 0.570731
0.770000 0.570731 0.570731 0.570731
0.770000 0.570731 0.570731 0.570731
0.775000 0.570731 0.570731 0.570731
0.775000 0.570731 0.570731 0.570731
0.780000 0.570731 0.570731 0.570731
0.780000 0.570731 0.570731 0.570731
0.785000 0.570731 0.570731 0.570731
0.785000 0.570731 0.570731 0.570731
0.790000 0.570731 0.570731 0.570731
0.790000 0.570731 0.570731 0.570731
0.795000 0.570731 0.570731 0.570731
0.795000 0.570731 0.570731 0.570731
0.800000 0.570731 0.570731 0.570731
0.800000 0.570731 0.570731 0.570731
0.805000 0.570731 0.570731 0.570731
0.805000 0.570731 0.570731 0.570731
0.810000 0.570731 0.570731 0.570731
0.810000 0.570731 0.570731 0.570731
0.815000 0.570731 0.570731 0.570731
0.815000 0.570731 0.570731 0.570731
0.820000 0.570731 0.570731 0.570731
0.820000 0.570731 0.570731 0.570731
0.825000 0.570731 0.570731 0.570731
0.825000 0.570731 0.570731 0.570731
0.830000 0.570731 0.570731 0.570731
0.830000 0.570731 0.570731 0.570731
0.835000 0.570731 0.570731 0.570731
0.835000 0.570731 0.570731 0.570731
0.840000 0.570731 0.570731 0.570731
0.840000 0.570731 0.570731 0.570731
0.845000 0.570731 0.570731 0.570731
0.845000 0.570731 0.570731 0.570731
0.850000 0.570731 0.570731 0.570731
0.850000 0.570731 0.570731 0.570731
0.855000 0.570731 0.570731 0.570731
0.855000 0.570731 0.570731 0.570731
0.860000 0.570731 0.570731 0.570731
0.860000 0.570731 0.570731 0.570731
0.865000 0.570731 0.570731 0.570731
0.865000 0.570731 0.570731 0.570731
0.870000 0.570731 0.570731 0.570731
0.870000 0.570731 0.570731 0.570731
0.875000 0.570731 0.570731 0.570731
0.875000 0.570731 0.570731 0.570731
0.880000 0.570731 0.570731 0.570731
0.880000 0.570731 0.570731 0.570731
0.885000 0.570731 0.570731 0.570731
0.885000 0.570731 0.570731 0.570731
0.890000 0.570731 0.570731 0.570731
0.890000 0.570731 0.570731 0.570731
0.895000 0.570731 0.570731 0.570731
0.895000 0.570731 0.570731 0.570731
0.900000 0.570731 0.570731 0.570731
0.900000 0.570731 0.570731 0.570731
0.905000 0.570731 0.570731 0.570731
0.905000 0.570731 0.570731 0.570731
0.910000 0.570731 0.570731 0.570731
0.910000 0.570731 0.570731 0.570731
0.915000 0.570731 0.570731 0.570731
0.915000 0.570731 0.570731 0.570731
0.920000 0.570731 0.570731 0.570731
0.920000 0.570731 0.570731 0.570731
0.925000 0.570731 0.570731 0.570731
0.925000 0.570731 0.570731 0.570731
0.930000 0.570731 0.570731 0.570731
0.930000 0.570731 0.570731 0.570731
0.935000 0.570731 0.570731 0.570731
0.935000 0.570731 0.570731 0.570731
0.940000 0.570731 0.570731 0.570731
0.940000 0.570731 0.570731 0.570731
0.945000 0.570731 0.570731 0.570731
0.945000 0.570731 0.570731 0.570731
0.950000 0.570731 0.570731 0.570731
0.950000 0.570731 0.570731 0.570731
0.955000 0.570731 0.570731 0.570731
0.955000 0.570731 0.570731 0.570731
0.960000 0.570731 0.570731 0.570731
0.960000 0.570731 0.570731 0.570731
0.965000 0.570731 0.570731 0.570731
0.965000 0.570731 0.570731 0.570731
0.970000 0.570731 0.570731 0.570731
0.970000 0.570731 0.570731 0.570731
0.975000 0.570731 0.570731 0.570731
0.975000 0.570731 0.570731 0.570731
0.980000 0.570731 0.570731 0.570731
0.980000 0.570731 0.570731 0.570731
0.985000 0.570731 0.570731 0.570731
0.985000 0.570731 0.570731 0.570731
0.990000 0.570731 0.570731 0.570731
0.990000 0.570731 0.570731 0.570731
0.995000 0.570731 0.570731 0.570731
0.995000 0.570731 0.570731 0.570731
