TITLE="(Vx,Vy)"
VARIABLES=X,Y,Hx,Hy,Hm
ZONE T="T-Dummy" I=83, J=30, F=POINT
0.063333 0.052410 0.000000 0.000000 0.000000
0.063333 0.157229 0.000000 0.000000 0.000000
0.063333 0.262048 0.000000 0.000000 0.000000
0.063333 0.366867 0.000000 0.000000 0.000000
0.063333 0.471687 0.000000 0.000000 0.000000
0.063333 0.576506 0.000000 0.000000 0.000000
0.063333 0.681325 0.000000 0.000000 0.000000
0.063333 0.786145 0.000000 0.000000 0.000000
0.063333 0.890964 0.000000 0.000000 0.000000
0.063333 0.995783 0.000000 0.000000 0.000000
0.063333 1.100602 0.000000 0.000000 0.000000
0.063333 1.205422 0.000000 0.000000 0.000000
0.063333 1.310241 0.000000 0.000000 0.000000
0.063333 1.415060 0.000000 0.000000 0.000000
0.063333 1.519880 0.000000 0.000000 0.000000
0.063333 1.624699 0.000000 0.000000 0.000000
0.063333 1.729518 0.000000 0.000000 0.000000
0.063333 1.834337 0.000000 0.000000 0.000000
0.063333 1.939157 0.000000 0.000000 0.000000
0.063333 2.043976 0.000000 0.000000 0.000000
0.063333 2.148795 0.000000 0.000000 0.000000
0.063333 2.253614 0.000000 0.000000 0.000000
0.063333 2.358434 0.000000 0.000000 0.000000
0.063333 2.463253 0.000000 0.000000 0.000000
0.063333 2.568072 0.000000 0.000000 0.000000
0.063333 2.672892 0.000000 0.000000 0.000000
0.063333 2.777711 0.000000 0.000000 0.000000
0.063333 2.882530 0.000000 0.000000 0.000000
0.063333 2.987349 0.000000 0.000000 0.000000
0.063333 3.092169 0.000000 0.000000 0.000000
0.063333 3.196988 0.000000 0.000000 0.000000
0.063333 3.301807 0.000000 0.000000 0.000000
0.063333 3.406627 0.000000 0.000000 0.000000
0.063333 3.511446 0.000000 0.000000 0.000000
0.063333 3.616265 0.000000 0.000000 0.000000
0.063333 3.721084 0.000000 0.000000 0.000000
0.063333 3.825904 0.000000 0.000000 0.000000
0.063333 3.930723 0.000000 0.000000 0.000000
0.063333 4.035542 0.000000 0.000000 0.000000
0.063333 4.140361 0.000000 0.000000 0.000000
0.063333 4.245181 0.000000 0.000000 0.000000
0.063333 4.350000 0.000000 0.000000 0.000000
0.063333 4.454819 0.000000 0.000000 0.000000
0.063333 4.559639 0.000000 0.000000 0.000000
0.063333 4.664458 0.000000 0.000000 0.000000
0.063333 4.769277 0.000000 0.000000 0.000000
0.063333 4.874096 0.000000 0.000000 0.000000
0.063333 4.978916 0.000000 0.000000 0.000000
0.063333 5.083735 0.000000 0.000000 0.000000
0.063333 5.188554 0.000000 0.000000 0.000000
0.063333 5.293373 0.000000 0.000000 0.000000
0.063333 5.398193 0.000000 0.000000 0.000000
0.063333 5.503012 0.000000 0.000000 0.000000
0.063333 5.607831 0.000000 0.000000 0.000000
0.063333 5.712651 0.000000 0.000000 0.000000
0.063333 5.817470 0.000000 0.000000 0.000000
0.063333 5.922289 0.000000 0.000000 0.000000
0.063333 6.027108 0.000000 0.000000 0.000000
0.063333 6.131928 0.000000 0.000000 0.000000
0.063333 6.236747 0.000000 0.000000 0.000000
0.063333 6.341566 0.000000 0.000000 0.000000
0.063333 6.446386 0.000000 0.000000 0.000000
0.063333 6.551205 0.000000 0.000000 0.000000
0.063333 6.656024 0.000000 0.000000 0.000000
0.063333 6.760843 0.000000 0.000000 0.000000
0.063333 6.865663 0.000000 0.000000 0.000000
0.063333 6.970482 0.000000 0.000000 0.000000
0.063333 7.075301 0.000000 0.000000 0.000000
0.063333 7.180120 0.000000 0.000000 0.000000
0.063333 7.284940 0.000000 0.000000 0.000000
0.063333 7.389759 0.000000 0.000000 0.000000
0.063333 7.494578 0.000000 0.000000 0.000000
0.063333 7.599398 0.000000 0.000000 0.000000
0.063333 7.704217 0.000000 0.000000 0.000000
0.063333 7.809036 0.000000 0.000000 0.000000
0.063333 7.913855 0.000000 0.000000 0.000000
0.063333 8.018675 0.000000 0.000000 0.000000
0.063333 8.123494 0.000000 0.000000 0.000000
0.063333 8.228313 0.000000 0.000000 0.000000
0.063333 8.333133 0.000000 0.000000 0.000000
0.063333 8.437952 0.000000 0.000000 0.000000
0.063333 8.542771 0.000000 0.000000 0.000000
0.063333 8.647590 0.000000 0.000000 0.000000
0.190000 0.052410 0.000000 0.000000 0.000000
0.190000 0.157229 1350.210815 -5632.341309 5791.934082
0.190000 0.262048 2287.350098 -4558.343262 5100.047852
0.190000 0.366867 3121.321777 -4219.679688 5248.824219
0.190000 0.471687 3933.798340 -4892.236328 6277.657715
0.190000 0.576506 4815.430664 -3867.193848 6176.116211
0.190000 0.681325 5608.846191 -4498.463867 7189.989258
0.190000 0.786145 6165.833008 -3846.550293 7267.524414
0.190000 0.890964 6558.845703 -4753.154785 8100.173828
0.190000 0.995783 6707.360352 -4472.311523 8061.673828
0.190000 1.100602 6870.984375 -5353.140625 8710.142578
0.190000 1.205422 6807.006836 -5009.371094 8453.125000
0.190000 1.310241 6426.527832 -5309.498047 8336.430664
0.190000 1.415060 6005.637695 -5155.218262 7914.866211
0.190000 1.519880 6114.662109 -5835.110352 8452.078125
0.190000 1.624699 3556.649902 -5671.302734 6698.298828
0.190000 1.729518 3321.841797 -5077.200195 6067.915039
0.190000 1.834337 6138.285156 -3557.559570 7095.270508
0.190000 1.939157 3258.921875 -5789.321777 6643.673828
0.190000 2.043976 563.520508 -5183.413086 5213.956543
0.190000 2.148795 1403.405029 -2755.315918 3092.207520
0.190000 2.253614 2327.980957 -2837.075439 3670.004395
0.190000 2.358434 3312.875000 -2997.149414 4467.600586
0.190000 2.463253 4280.466309 -3147.903809 5313.423828
0.190000 2.568072 2769.945801 -3663.783691 4593.120605
0.190000 2.672892 1297.564453 -3459.593750 3694.942383
0.190000 2.777711 2245.337402 -3532.951172 4186.158203
0.190000 2.882530 3210.924805 -3994.074219 5124.799805
0.190000 2.987349 4188.562988 -3731.295654 5609.675293
0.190000 3.092169 2721.724121 -4034.879883 4867.085449
0.190000 3.196988 1225.072266 -3736.665527 3932.397461
0.190000 3.301807 2144.599365 -3621.207764 4208.619141
0.190000 3.406627 3125.719727 -3900.110596 4998.199219
0.190000 3.511446 4087.339844 -1834.385010 4480.313965
0.190000 3.616265 2591.183838 -1971.622070 3256.342773
0.190000 3.721084 1107.457397 -2006.512573 2291.955078
0.190000 3.825904 2052.156250 -1969.604248 2844.622559
0.190000 3.930723 3023.962402 -1965.303223 3606.720703
0.190000 4.035542 3996.150146 -1959.937500 4451.234863
0.190000 4.140361 2531.541992 -1940.718750 3190.087891
0.190000 4.245181 1022.780273 -2103.514893 2339.117676
0.190000 4.350000 1948.788330 -1920.927612 2736.612793
0.190000 4.454819 2939.736084 -2080.357422 3601.606201
0.190000 4.559639 3904.104736 -1883.232056 4334.813477
0.190000 4.664458 2406.736572 -2061.594727 3169.293701
0.190000 4.769277 899.042114 -2064.834229 2252.149902
0.190000 4.874096 1858.337646 -2086.609863 2794.239258
0.190000 4.978916 2857.202637 -2039.498535 3510.690918
0.190000 5.083735 3833.690674 -2062.100098 4353.366211
0.190000 5.188554 2349.810059 -1986.480347 3077.223145
0.190000 5.293373 814.958557 -2202.356445 2348.368652
0.190000 5.398193 1772.682617 -2009.304932 2679.746582
0.190000 5.503012 2799.099609 -2205.409912 3563.604980
0.190000 5.607831 3782.174316 -1937.487061 4249.843750
0.190000 5.712651 5957.285156 -2180.670410 6344.061523
0.190000 5.817470 7483.493164 -2141.285156 7784.027344
0.190000 5.922289 6283.994141 -2742.819092 6856.830078
0.190000 6.027108 5721.924805 -2786.382812 6364.493652
0.190000 6.131928 6729.159180 -2257.249023 7097.958008
0.190000 6.236747 7497.374512 -1989.030518 7756.948730
0.190000 6.341566 6485.033203 -2304.544434 6882.664062
0.190000 6.446386 5710.391602 -2349.288330 6174.995117
0.190000 6.551205 6656.562500 -2255.178955 7028.505859
0.190000 6.656024 7381.259277 -2294.968750 7730.003906
0.190000 6.760843 6583.271484 -2362.833496 6994.812012
0.190000 6.865663 5963.641602 -2347.911377 6409.449219
0.190000 6.970482 6838.851562 -2292.005615 7212.998047
0.190000 7.075301 7457.620117 -2288.028320 7800.951172
0.190000 7.180120 6717.974609 -2623.664062 7212.409668
0.190000 7.284940 6187.772461 -3379.902588 7050.845703
0.190000 7.389759 6973.140625 -3167.146484 7658.875977
0.190000 7.494578 7390.932617 -2458.213867 7789.190430
0.190000 7.599398 6599.859863 -2702.960938 7132.144531
0.190000 7.704217 6157.069824 -3211.231445 6944.329102
0.190000 7.809036 6895.859375 -2953.817871 7502.028809
0.190000 7.913855 7320.516602 -2521.239746 7742.704590
0.190000 8.018675 6573.168945 -2789.203125 7140.676270
0.190000 8.123494 6140.588379 -3309.222168 6975.672852
0.190000 8.228313 6809.510742 -2488.856445 7250.267578
0.190000 8.333133 7214.891602 -2635.846191 7681.492188
0.190000 8.437952 6534.083008 -2922.210205 7157.943359
0.190000 8.542771 6079.267578 -3475.780029 7002.914062
0.190000 8.647590 0.000000 0.000000 0.000000
0.316667 0.052410 0.000000 0.000000 0.000000
0.316667 0.157229 7323.650391 -3078.630371 7944.571289
0.316667 0.262048 7586.763184 -3660.439453 8423.837891
0.316667 0.366867 7760.838379 -3258.790771 8417.553711
0.316667 0.471687 7746.150391 -3465.993164 8486.414062
0.316667 0.576506 7737.770508 -2869.090820 8252.847656
0.316667 0.681325 7712.909180 -3156.062988 8333.844727
0.316667 0.786145 7697.213379 -2738.662354 8170.206055
0.316667 0.890964 7673.313477 -2939.205078 8217.198242
0.316667 0.995783 7650.492188 -3008.457031 8221.058594
0.316667 1.100602 7629.255859 -3296.438965 8311.174805
0.316667 1.205422 7606.692383 -2871.866943 8131.084961
0.316667 1.310241 3829.648438 -3071.450195 4909.451172
0.316667 1.415060 626.973511 -3146.980225 3208.851562
0.316667 1.519880 1550.582764 -3443.353027 3776.445312
0.316667 1.624699 2541.570068 -2961.165039 3902.373779
0.316667 1.729518 3529.906494 -3088.005371 4690.153320
0.316667 1.834337 4458.115234 -3041.918945 5397.189453
0.316667 1.939157 5335.481934 -2580.762695 5927.035156
0.316667 2.043976 6148.570312 -2864.697266 6783.366699
0.316667 2.148795 6850.097656 -2772.279297 7389.977539
0.316667 2.253614 7264.183105 -3086.588867 7892.938477
0.316667 2.358434 7428.703125 -3044.279053 8028.458008
0.316667 2.463253 7445.268555 -3388.967041 8180.475586
0.316667 2.568072 7224.651367 -3684.362793 8110.044434
0.316667 2.672892 6926.717285 -3641.266602 7825.678223
0.316667 2.777711 6905.564453 -3680.526367 7825.334473
0.316667 2.882530 6905.805664 -4364.164062 8169.457031
0.316667 2.987349 6817.481934 -2926.395020 7419.301758
0.316667 3.092169 6953.045898 -3391.155273 7736.164062
0.316667 3.196988 3808.348145 -2936.521484 4809.340332
0.316667 3.301807 1004.163330 -3151.486816 3307.605469
0.316667 3.406627 1906.075195 -3332.980469 3839.626953
0.316667 3.511446 2854.991699 -1439.045898 3197.695312
0.316667 3.616265 3862.965088 -1509.109985 4147.756348
0.316667 3.721084 2456.186035 -1708.089355 2992.251465
0.316667 3.825904 929.594055 -1865.224731 2084.232422
0.316667 3.930723 1805.373047 -2433.770996 3030.487305
0.316667 4.035542 2780.100342 -2056.614258 3458.544922
0.316667 4.140361 3761.349121 -1364.445801 4001.829834
0.316667 4.245181 2307.746582 -2814.470215 3639.849609
0.316667 4.350000 802.346191 -2463.898926 2591.322266
0.316667 4.454819 1708.462280 -1094.261597 2030.301514
0.316667 4.559639 2674.483398 -2604.710449 3733.567383
0.316667 4.664458 3670.149414 -2200.137695 4279.642578
0.316667 4.769277 2251.948730 -536.815247 2315.517090
0.316667 4.874096 714.446167 -580.981018 922.351624
0.316667 4.978916 1601.751709 -661.103943 1733.364990
0.316667 5.083735 2593.283936 -604.469788 2663.729492
0.316667 5.188554 3578.953613 -597.038818 3628.723633
0.316667 5.293373 2116.649658 -552.000732 2188.520020
0.316667 5.398193 579.099487 -605.693726 838.638916
0.316667 5.503012 1495.839355 -686.162109 1646.900146
0.316667 5.607831 2483.692383 -517.538452 2537.553711
0.316667 5.712651 3485.055664 -689.137817 3553.248291
0.316667 5.817470 4440.484375 -710.289917 4497.209473
0.316667 5.922289 2873.108398 -613.705994 2938.764648
0.316667 6.027108 1389.541260 -689.440247 1551.879883
0.316667 6.131928 2410.126465 -806.325317 2542.289062
0.316667 6.236747 3412.373535 -569.594971 3460.059570
0.316667 6.341566 4371.734375 -801.344116 4445.125977
0.316667 6.446386 2824.000244 -641.308105 2896.510742
0.316667 6.551205 1324.625488 -723.323608 1510.546143
0.316667 6.656024 2333.391602 -796.327271 2466.125244
0.316667 6.760843 3356.452148 -743.492432 3438.613281
0.316667 6.865663 4320.987305 -721.201538 4381.177734
0.316667 6.970482 6282.109375 -667.665527 6317.951172
0.316667 7.075301 7736.891602 -716.629517 7770.308594
0.316667 7.180120 6802.016602 -864.152832 6857.072754
0.316667 7.284940 6378.249023 -1609.596191 6578.418945
0.316667 7.389759 7312.048828 -1677.066772 7502.168945
0.316667 7.494578 7835.792969 -856.011169 7882.758789
0.316667 7.599398 6885.758301 -815.635620 6934.240234
0.316667 7.704217 6340.050781 -1058.185547 6428.032715
0.316667 7.809036 7215.309570 -1360.402832 7342.712402
0.316667 7.913855 6361.902832 -992.993530 6439.220703
0.316667 8.018675 5619.147461 -832.798462 5681.006348
0.316667 8.123494 6575.232422 -1138.191406 6673.518555
0.316667 8.228313 7386.821289 -788.189087 7429.087402
0.316667 8.333133 6583.170898 -1002.908813 6659.491211
0.316667 8.437952 5883.637695 -1106.779663 5987.223633
0.316667 8.542771 6765.309570 -1883.779053 7022.816895
0.316667 8.647590 0.000000 0.000000 0.000000
0.443333 0.052410 0.000000 0.000000 0.000000
0.443333 0.157229 6708.569336 -1280.645020 6830.036133
0.443333 0.262048 7384.657715 -1501.308105 7535.860352
0.443333 0.366867 6569.196289 -1355.979492 6708.011719
0.443333 0.471687 5864.412109 -1075.402344 5962.403320
0.443333 0.576506 6623.459473 -1337.530884 6757.496582
0.443333 0.681325 7256.599609 -1559.544434 7422.448242
0.443333 0.786145 6518.144531 -1432.572998 6674.056152
0.443333 0.890964 5850.474121 -1144.556885 5961.617188
0.443333 0.995783 6521.232422 -1439.139893 6678.494141
0.443333 1.100602 7102.569336 -1665.562500 7295.426758
0.443333 1.205422 7550.060547 -1100.791138 7630.217285
0.443333 1.310241 7695.148926 -1221.229858 7791.684082
0.443333 1.415060 7665.402344 -1555.121338 7821.878418
0.443333 1.519880 7797.053711 -1785.450195 7999.073242
0.443333 1.624699 7794.292969 -1735.325928 7985.401855
0.443333 1.729518 7796.283203 -2074.065430 8067.639648
0.443333 1.834337 7813.168945 -2021.132080 8070.606445
0.443333 1.939157 7806.201172 -1736.939819 7997.289062
0.443333 2.043976 7816.519531 -1540.552734 7967.201172
0.443333 2.148795 7805.399414 -1578.402100 7963.625977
0.443333 2.253614 7804.504395 -1846.127930 8020.179199
0.443333 2.358434 7793.316406 -1904.193848 8022.799805
0.443333 2.463253 7789.324219 -1681.239014 7969.006348
0.443333 2.568072 4164.030273 -1741.891235 4514.145508
0.443333 2.672892 1113.329346 -2005.343384 2293.880615
0.443333 2.777711 2092.837891 -2080.069824 2951.071777
0.443333 2.882530 3090.842285 -2400.977051 3914.136963
0.443333 2.987349 4072.927734 -1585.802002 4371.041016
0.443333 3.092169 4988.964844 -1908.868286 5342.081543
0.443333 3.196988 5869.794922 -1127.228760 5977.253906
0.443333 3.301807 6663.177734 -1411.333008 6811.352051
0.443333 3.406627 7316.360352 -1293.933716 7430.064941
0.443333 3.511446 7639.746094 -1610.229980 7807.908203
0.443333 3.616265 7700.445312 -1528.896729 7850.917480
0.443333 3.721084 4185.374512 -1889.439453 4592.540039
0.443333 3.825904 4111.946289 -1869.524292 4517.203125
0.443333 3.930723 7437.002930 -2582.370605 7872.852539
0.443333 4.035542 3864.462646 -2150.652344 4422.846680
0.443333 4.140361 4006.811279 -1689.033936 4348.936523
0.443333 4.245181 7420.338379 -2235.982910 7750.244141
0.443333 4.350000 3779.699219 -1743.181152 4162.896484
0.443333 4.454819 644.555420 -424.178436 774.967651
0.443333 4.559639 1476.061279 -2078.482422 2549.585205
0.443333 4.664458 2440.318115 -1722.202148 2987.402588
0.443333 4.769277 3425.024170 -98.144363 3426.793945
0.443333 4.874096 2020.218262 -215.305359 2032.552734
0.443333 4.978916 516.837402 -356.986938 629.389282
0.443333 5.083735 1380.980591 -549.164917 1487.157104
0.443333 5.188554 2329.857422 -1085.250732 2570.557617
0.443333 5.293373 3333.892578 -675.816528 3402.215088
0.443333 5.398193 4326.443359 106.382202 4328.215820
0.443333 5.503012 2782.913574 -1295.817383 3070.203125
0.443333 5.607831 1269.450562 -1008.315674 1621.702881
0.443333 5.712651 2247.849121 -1352.362793 2623.875977
0.443333 5.817470 3236.712891 -1381.931152 3519.659180
0.443333 5.922289 4235.790527 -931.728027 4337.932129
0.443333 6.027108 2730.172852 -1186.914185 2977.401611
0.443333 6.131928 1196.230225 769.030457 1422.623413
0.443333 6.236747 2144.943359 595.803955 2227.024170
0.443333 6.341566 3155.822266 588.291382 3210.511719
0.443333 6.446386 4144.247070 564.553955 4183.080078
0.443333 6.551205 2596.866699 641.317993 2675.305664
0.443333 6.656024 1069.321533 649.191650 1252.401855
0.443333 6.760843 2045.680908 686.722656 2158.284668
0.443333 6.865663 3047.812500 481.527344 3086.318359
0.443333 6.970482 4048.230469 731.821777 4114.144531
0.443333 7.075301 2534.654297 472.477600 2579.286133
0.443333 7.180120 986.763550 765.564575 1249.271484
0.443333 7.284940 1956.622681 567.799377 2038.599121
0.443333 7.389759 2984.299072 582.397400 3040.888428
0.443333 7.494578 3981.935303 503.378418 4014.635254
0.443333 7.599398 2422.214355 633.692383 2504.133789
0.443333 7.704217 858.992249 608.659546 1055.105225
0.443333 7.809036 1866.949951 687.096130 1989.601807
0.443333 7.913855 2913.154297 449.133240 2948.631836
0.443333 8.018675 3923.120605 727.102539 3990.190430
0.443333 8.123494 6195.791504 392.013672 6208.994629
0.443333 8.228313 7929.697266 762.435303 7966.284180
0.443333 8.333133 6620.123047 519.674194 6641.127930
0.443333 8.437952 5965.271973 573.232788 5992.838379
0.443333 8.542771 7008.954102 -198.141724 7012.041504
0.443333 8.647590 0.000000 0.000000 0.000000
0.570000 0.052410 0.000000 0.000000 0.000000
0.570000 0.157229 6932.566406 522.279663 6952.213867
0.570000 0.262048 7675.897461 316.765106 7682.715820
0.570000 0.366867 6842.532227 174.075897 6844.776367
0.570000 0.471687 6219.468750 348.405212 6229.567871
0.570000 0.576506 7139.781738 253.344971 7144.306641
0.570000 0.681325 6291.028320 306.569000 6298.947754
0.570000 0.786145 5515.283691 195.938019 5518.772461
0.570000 0.890964 6465.535156 374.466431 6476.744629
0.570000 0.995783 7298.193359 291.408447 7304.024414
0.570000 1.100602 6360.653320 -13.767616 6361.028320
0.570000 1.205422 5528.536133 -433.681580 5545.714844
0.570000 1.310241 6430.694336 199.374390 6434.098633
0.570000 1.415060 7217.806641 97.509926 7218.604980
0.570000 1.519880 6334.720215 -253.377411 6340.084961
0.570000 1.624699 5548.419922 68.360786 5549.025391
0.570000 1.729518 6410.636719 156.866516 6412.921875
0.570000 1.834337 7129.429688 56.180199 7129.787109
0.570000 1.939157 6290.098145 -315.943481 6298.379883
0.570000 2.043976 5572.272949 15.349518 5572.470703
0.570000 2.148795 6343.723633 73.864021 6344.608398
0.570000 2.253614 6980.508789 -37.717216 6980.731445
0.570000 2.358434 7623.290039 -435.276215 7636.066406
0.570000 2.463253 7914.293945 -88.130730 7914.893555
0.570000 2.568072 7803.402344 -22.061863 7803.895508
0.570000 2.672892 7972.464844 -125.583939 7973.541016
0.570000 2.777711 8019.026367 -569.912476 8039.678711
0.570000 2.882530 8012.874023 -769.280273 8049.783203
0.570000 2.987349 8026.916992 -726.676880 8059.991211
0.570000 3.092169 8010.686523 -905.432983 8061.744629
0.570000 3.196988 8017.724609 -424.541016 8029.190918
0.570000 3.301807 8001.635254 -644.618530 8027.613281
0.570000 3.406627 7998.661621 -220.125275 8001.940918
0.570000 3.511446 7984.219727 -409.822083 7994.757812
0.570000 3.616265 7978.696289 -552.626526 7998.055664
0.570000 3.721084 4085.065918 -799.960571 4162.703125
0.570000 3.825904 706.705688 -336.503967 784.899353
0.570000 3.930723 1638.533447 -551.504517 1728.900391
0.570000 4.035542 2662.209473 -675.588867 2747.295898
0.570000 4.140361 3667.957520 -959.968872 3791.506592
0.570000 4.245181 4628.367188 -498.308258 4655.810547
0.570000 4.350000 5539.137695 -437.529968 5556.638672
0.570000 4.454819 6420.046875 -357.909637 6430.399414
0.570000 4.559639 7170.722656 10.203805 7170.853516
0.570000 4.664458 7649.256836 -352.535126 7657.774414
0.570000 4.769277 7847.403320 -194.416763 7849.923340
0.570000 4.874096 4014.759277 -586.976379 4058.152344
0.570000 4.978916 3887.167480 -484.598145 3917.483887
0.570000 5.083735 7401.598633 -913.691772 7458.159668
0.570000 5.188554 7374.265137 -1185.482910 7469.059570
0.570000 5.293373 7548.528320 -1185.238525 7641.360352
0.570000 5.398193 7418.111328 -125.726151 7419.402344
0.570000 5.503012 7394.185547 -1818.141846 7614.716309
0.570000 5.607831 4066.433838 -257.302948 4074.574951
0.570000 5.712651 1089.395752 -674.756958 1283.425293
0.570000 5.817470 1988.535645 -599.693848 2077.141846
0.570000 5.922289 2980.579102 -496.938995 3023.445312
0.570000 6.027108 3990.141357 -668.030151 4045.765381
0.570000 6.131928 2497.988525 1085.587402 2724.287598
0.570000 6.236747 975.498047 974.619995 1379.239868
0.570000 6.341566 1899.345581 753.797180 2044.255615
0.570000 6.446386 2879.699951 559.438660 2933.757324
0.570000 6.551205 3893.173340 435.770386 3917.949463
0.570000 6.656024 2432.628418 442.294800 2472.962891
0.570000 6.760843 891.488037 412.058044 983.997192
0.570000 6.865663 1801.642456 -216.569672 1815.668213
0.570000 6.970482 2797.385742 52.780632 2798.631592
0.570000 7.075301 3801.286133 1327.598022 4026.791260
0.570000 7.180120 2311.916016 -77.321243 2313.702881
0.570000 7.284940 763.955078 284.269104 815.130981
0.570000 7.389759 1697.966553 -1358.851807 2174.791260
0.570000 7.494578 2696.319336 -1266.903564 2979.302734
0.570000 7.599398 3706.760742 -1882.763428 4157.541016
0.570000 7.704217 2235.501953 -1089.252319 2487.070801
0.570000 7.809036 666.928223 -1598.293945 1731.859619
0.570000 7.913855 1590.253906 -1080.591309 1922.899048
0.570000 8.018675 2606.127686 -1578.832031 3047.076660
0.570000 8.123494 3617.558594 -1614.824219 3961.765625
0.570000 8.228313 2116.312988 -1363.243408 2517.421387
0.570000 8.333133 535.293823 -1322.329102 1426.635986
0.570000 8.437952 1489.060059 -1368.277588 2022.247314
0.570000 8.542771 2520.740723 -1303.622681 2838.043945
0.570000 8.647590 0.000000 0.000000 0.000000
0.696667 0.052410 0.000000 0.000000 0.000000
0.696667 0.157229 1393.477783 -1612.292969 2131.158203
0.696667 0.262048 2453.053955 -1646.753906 2954.725098
0.696667 0.366867 3490.516113 -1620.776123 3848.469727
0.696667 0.471687 4458.459961 -1642.015991 4751.331055
0.696667 0.576506 6444.868164 -3751.052734 7457.152832
0.696667 0.681325 6468.533203 -1710.165527 6691.035156
0.696667 0.786145 5486.662109 -2505.667969 6031.745605
0.696667 0.890964 6589.784180 -1825.594238 6838.172852
0.696667 0.995783 7534.472656 -2690.332275 8000.400879
0.696667 1.100602 6440.270020 -2091.339600 6771.485352
0.696667 1.205422 5498.604004 -3727.739258 6643.223633
0.696667 1.310241 6547.925293 -2134.506836 6887.181641
0.696667 1.415060 7438.544922 -3132.226318 8071.262695
0.696667 1.519880 6552.623047 -2367.882324 6967.448730
0.696667 1.624699 5798.120605 -3408.415283 6725.887695
0.696667 1.729518 6769.092773 -2212.608887 7121.661133
0.696667 1.834337 7596.363281 -3263.531738 8267.875000
0.696667 1.939157 6778.727539 -2476.414795 7217.018066
0.696667 2.043976 6067.983398 -3588.152344 7049.627930
0.696667 2.148795 6972.583008 -3905.607910 7992.441406
0.696667 2.253614 7693.454102 -3226.786133 8342.886719
0.696667 2.358434 6793.416016 -3204.104980 7511.436523
0.696667 2.463253 6057.933105 -3735.520264 7117.260742
0.696667 2.568072 6910.376953 -3243.892090 7634.312500
0.696667 2.672892 7603.905273 -3726.260742 8468.058594
0.696667 2.777711 6758.302734 -1623.452759 6950.629883
0.696667 2.882530 6042.857422 -2279.726074 6458.583008
0.696667 2.987349 6817.069336 -1870.047852 7069.000977
0.696667 3.092169 7469.582031 -2677.733398 7935.054688
0.696667 3.196988 6703.580078 -3231.404297 7442.047852
0.696667 3.301807 6024.985352 -4133.133789 7306.529297
0.696667 3.406627 6705.318359 -1660.207764 6908.062500
0.696667 3.511446 7308.667969 -2338.273926 7673.611816
0.696667 3.616265 7723.473633 -2833.219238 8227.015625
0.696667 3.721084 7868.389648 -4638.442383 9134.455078
0.696667 3.825904 7926.784668 -4504.706543 9117.538086
0.696667 3.930723 8031.816895 -2050.963135 8289.542969
0.696667 4.035542 7841.944824 -2303.610352 8173.387695
0.696667 4.140361 7846.050781 -3309.000488 8515.289062
0.696667 4.245181 7878.399414 -5400.859375 9552.525391
0.696667 4.350000 7873.547852 -5632.771484 9681.466797
0.696667 4.454819 7899.814453 -2235.038330 8209.917969
0.696667 4.559639 7890.282227 -2167.757324 8182.669922
0.696667 4.664458 7901.683594 -2223.027832 8208.609375
0.696667 4.769277 7891.773926 -2696.621094 8339.927734
0.696667 4.874096 7897.810059 -3048.093262 8465.728516
0.696667 4.978916 4221.300781 -3652.397949 5582.179688
0.696667 5.083735 1210.631104 -3949.904297 4131.291992
0.696667 5.188554 2199.247803 -4930.381836 5398.682617
0.696667 5.293373 3223.739746 -2185.983887 3895.183594
0.696667 5.398193 4218.361328 -3953.231445 5781.419922
0.696667 5.503012 5153.421875 -2048.760498 5545.765625
0.696667 5.607831 6049.892578 -1334.820801 6195.402832
0.696667 5.712651 6860.612793 -1300.049194 6982.764160
0.696667 5.817470 7532.266602 -1935.869385 7777.088867
0.696667 5.922289 7804.183594 -2119.444336 8086.888184
0.696667 6.027108 7872.608887 -3236.787109 8512.100586
0.696667 6.131928 7454.573242 -4027.541016 8473.000977
0.696667 6.236747 7434.159180 -4691.382324 8790.797852
0.696667 6.341566 7658.245117 -1525.616943 7809.056152
0.696667 6.446386 3967.318359 -2166.177490 4520.190430
0.696667 6.551205 4142.817383 -2135.002930 4660.846680
0.696667 6.656024 7660.929199 -2699.996094 8122.797363
0.696667 6.760843 4106.253418 -2078.979492 4603.102051
0.696667 6.865663 1622.223022 -3296.983887 3674.582031
0.696667 6.970482 3504.369629 -2964.213623 4590.311035
0.696667 7.075301 2974.375488 -2190.004883 3694.025879
0.696667 7.180120 2444.582031 -3254.796875 4073.449951
0.696667 7.284940 1961.603516 -3207.456055 3759.752441
0.696667 7.389759 1418.113281 -3229.684570 3527.329834
0.696667 7.494578 3286.065918 -3110.833008 4525.024414
0.696667 7.599398 2744.108643 -3739.992676 4638.753906
0.696667 7.704217 2215.859375 -3757.298828 4362.057617
0.696667 7.809036 1751.222168 -3715.536133 4107.574707
0.696667 7.913855 1208.679443 -3209.207520 3429.288574
0.696667 8.018675 3080.079590 -3799.033691 4890.794434
0.696667 8.123494 2523.333740 -4020.947266 4747.152832
0.696667 8.228313 1983.205078 -3912.446777 4386.402344
0.696667 8.333133 3887.943848 -2549.331299 4649.244141
0.696667 8.437952 3354.096680 -2667.009277 4285.296875
0.696667 8.542771 2890.867676 -2531.562988 3842.671387
0.696667 8.647590 0.000000 0.000000 0.000000
0.823333 0.052410 0.000000 0.000000 0.000000
0.823333 0.157229 6311.208496 -3167.609619 7061.624512
0.823333 0.262048 6253.722656 -3195.435059 7022.851562
0.823333 0.366867 6353.748047 -3294.828369 7157.315430
0.823333 0.471687 6372.225586 -3292.266113 7172.490234
0.823333 0.576506 6462.793457 -4193.815430 7704.666992
0.823333 0.681325 6431.014160 -2330.461914 6840.326172
0.823333 0.786145 6421.305176 -3238.467773 7191.869141
0.823333 0.890964 6397.969727 -3145.246582 7129.333496
0.823333 0.995783 6383.407715 -3386.743164 7226.334961
0.823333 1.100602 6348.392578 -2704.072021 6900.359375
0.823333 1.205422 6330.939453 -3713.776367 7339.949219
0.823333 1.310241 6288.945312 -3037.258789 6984.015625
0.823333 1.415060 6069.521484 -4084.205566 7315.930176
0.823333 1.519880 6176.848145 -1964.649170 6481.965820
0.823333 1.624699 6711.609375 -2943.244629 7328.829102
0.823333 1.729518 6586.949707 -2101.043457 6914.083496
0.823333 1.834337 6445.303711 -3125.638672 7163.453125
0.823333 1.939157 6301.592285 -2251.305420 6691.843750
0.823333 2.043976 3498.747559 -3330.006348 4830.385254
0.823333 2.148795 1718.648682 -4064.961426 4413.555664
0.823333 2.253614 3615.218262 -3398.961426 4962.321777
0.823333 2.358434 5315.055176 -3365.839355 6291.479492
0.823333 2.463253 6371.534180 -3887.987305 7464.344727
0.823333 2.568072 6473.227539 -5899.077148 8758.066406
0.823333 2.672892 4009.432129 -6217.327148 7398.020508
0.823333 2.777711 3014.212891 -4651.257812 5542.638672
0.823333 2.882530 5128.718262 -5352.773438 7413.231934
0.823333 2.987349 6207.619141 -4402.987305 7610.823242
0.823333 3.092169 6318.293945 -7027.233398 9451.160156
0.823333 3.196988 4067.477539 -5442.993164 6795.277832
0.823333 3.301807 3185.008301 -6036.921875 6825.596680
0.823333 3.406627 5238.131836 -4053.145020 6623.673828
0.823333 3.511446 5938.394043 -5166.513184 7871.305664
0.823333 3.616265 5904.207031 -5323.018066 7949.492676
0.823333 3.721084 3514.954590 -6964.595703 7801.354492
0.823333 3.825904 1668.795410 -7549.950684 7732.607422
0.823333 3.930723 2859.428711 -4487.942383 5321.515625
0.823333 4.035542 3998.642090 -5131.942871 6505.841797
0.823333 4.140361 5110.859375 -6029.147949 7903.944336
0.823333 4.245181 6048.334961 -6166.596680 8638.072266
0.823333 4.350000 6626.086914 -6333.061523 9166.286133
0.823333 4.454819 6704.238281 -3233.949707 7443.518555
0.823333 4.559639 4331.458984 -3496.417480 5566.548828
0.823333 4.664458 4405.608398 -3425.604980 5580.696289
0.823333 4.769277 3803.285645 -4135.408691 5618.553711
0.823333 4.874096 1538.690063 -4372.427734 4635.270020
0.823333 4.978916 2943.721191 -5217.850586 5991.099121
0.823333 5.083735 4373.205078 -5408.884766 6955.641602
0.823333 5.188554 5602.909180 -5346.055664 7744.375000
0.823333 5.293373 6443.541016 -2388.825928 6872.148438
0.823333 5.398193 6520.706055 -4402.106445 7868.012695
0.823333 5.503012 5951.538086 -2266.721924 6368.595703
0.823333 5.607831 3916.896973 -2809.534424 4820.612793
0.823333 5.712651 2607.267822 -2765.785156 3800.983887
0.823333 5.817470 3431.370117 -3502.404297 4903.317383
0.823333 5.922289 4307.221680 -3658.238281 5651.096680
0.823333 6.027108 5041.791016 -4871.064941 7010.686035
0.823333 6.131928 5699.119141 -4293.273438 7135.275391
0.823333 6.236747 6397.090820 -4976.846680 8105.377441
0.823333 6.341566 6942.689453 -1611.475098 7127.485840
0.823333 6.446386 7324.965820 -2842.768555 7857.299316
0.823333 6.551205 7378.043945 -2119.664551 7676.491211
0.823333 6.656024 4696.770508 -2653.021973 5394.392578
0.823333 6.760843 2714.120850 -2086.810791 3423.875000
0.823333 6.865663 3679.083252 -3053.472168 4781.311035
0.823333 6.970482 5892.737305 -2932.685059 6582.355469