TITLE="(Vx,Vy)"
VARIABLES=X,Y,Vx,Vy,Vm,V
ZONE T="T-Dummy" I=30, J=41, F=POINT
0.063333 0.007317 0.000000 0.000000 0.000000 0.000000
0.190000 0.007317 0.000000 0.000000 0.000000 0.000000
0.316667 0.007317 0.000000 0.000000 0.000000 0.000000
0.443333 0.007317 0.000000 0.000000 0.000000 0.000000
0.570000 0.007317 0.000000 0.000000 0.000000 0.000000
0.696667 0.007317 0.000000 0.000000 0.000000 0.000000
0.823333 0.007317 0.000000 0.000000 0.000000 0.000000
0.950000 0.007317 0.000000 0.000000 0.000000 0.000000
1.076667 0.007317 0.000000 0.000000 0.000000 0.000000
1.203333 0.007317 0.000000 0.000000 0.000000 0.000000
1.330000 0.007317 0.000000 0.000000 0.000000 0.000000
1.456667 0.007317 0.000000 0.000000 0.000000 0.000000
1.583333 0.007317 0.000000 0.000000 0.000000 0.000000
1.710000 0.007317 0.000000 0.000000 0.000000 0.000000
1.836667 0.007317 0.000000 0.000000 0.000000 0.000000
1.963333 0.007317 0.000000 0.000000 0.000000 0.000000
2.090000 0.007317 0.000000 0.000000 0.000000 0.000000
2.216667 0.007317 0.000000 0.000000 0.000000 0.000000
2.343333 0.007317 0.000000 0.000000 0.000000 0.000000
2.470000 0.007317 0.000000 0.000000 0.000000 0.000000
2.596667 0.007317 0.000000 0.000000 0.000000 0.000000
2.723333 0.007317 0.000000 0.000000 0.000000 0.000000
2.850000 0.007317 0.000000 0.000000 0.000000 0.000000
2.976667 0.007317 0.000000 0.000000 0.000000 0.000000
3.103333 0.007317 0.000000 0.000000 0.000000 0.000000
3.230000 0.007317 0.000000 0.000000 0.000000 0.000000
3.356667 0.007317 0.000000 0.000000 0.000000 0.000000
3.483333 0.007317 0.000000 0.000000 0.000000 0.000000
3.610000 0.007317 0.000000 0.000000 0.000000 0.000000
3.736667 0.007317 0.000000 0.000000 0.000000 0.000000
0.063333 0.021951 0.000000 0.000000 0.000000 0.000000
0.190000 0.021951 0.005584 -0.000771 0.900000 0.005637
0.316667 0.021951 0.025784 -0.001859 0.900000 0.025851
0.443333 0.021951 0.035686 0.001348 0.900000 0.035711
0.570000 0.021951 0.018081 0.001528 0.900000 0.018145
0.696667 0.021951 -0.003145 0.001573 0.900000 0.003516
0.823333 0.021951 -0.003597 0.000498 0.900000 0.003631
0.950000 0.021951 -0.015343 0.002213 0.900000 0.015502
1.076667 0.021951 -0.031329 -0.000862 0.900000 0.031340
1.203333 0.021951 -0.009085 -0.002449 0.900000 0.009409
1.330000 0.021951 -0.010198 0.001818 0.900000 0.010358
1.456667 0.021951 -0.009079 -0.003264 0.900000 0.009648
1.583333 0.021951 0.023364 -0.002567 0.900000 0.023505
1.710000 0.021951 -0.008311 0.004515 0.900000 0.009458
1.836667 0.021951 -0.040454 -0.001287 0.900000 0.040474
1.963333 0.021951 -0.025438 -0.000546 0.900000 0.025444
2.090000 0.021951 -0.022998 0.000392 0.900000 0.023002
2.216667 0.021951 -0.023073 -0.000050 0.900000 0.023073
2.343333 0.021951 -0.029966 0.001642 0.900000 0.030011
2.470000 0.021951 -0.038425 -0.000769 0.900000 0.038433
2.596667 0.021951 -0.022479 -0.002348 0.900000 0.022601
2.723333 0.021951 -0.010607 0.000466 0.900000 0.010617
2.850000 0.021951 -0.034480 0.001868 0.900000 0.034531
2.976667 0.021951 -0.045346 -0.000781 0.900000 0.045353
3.103333 0.021951 -0.013193 -0.001846 0.900000 0.013321
3.230000 0.021951 0.013305 -0.000841 0.900000 0.013331
3.356667 0.021951 0.041351 -0.003611 0.900000 0.041508
3.483333 0.021951 0.037121 0.003216 0.900000 0.037260
3.610000 0.021951 0.003957 0.000306 0.900000 0.003968
3.736667 0.021951 0.000000 0.000000 0.000000 0.000000
0.063333 0.036585 0.000000 0.000000 0.000000 0.000000
0.190000 0.036585 0.004648 -0.002179 0.900000 0.005133
0.316667 0.036585 0.020835 -0.005220 0.900000 0.021479
0.443333 0.036585 0.027725 0.003703 0.900000 0.027971
0.570000 0.036585 0.005074 0.005033 0.900000 0.007147
0.696667 0.036585 -0.042572 0.007066 0.900000 0.043154
0.823333 0.036585 -0.053203 -0.000691 0.900000 0.053208
0.950000 0.036585 -0.030969 0.002387 0.900000 0.031061
1.076667 0.036585 -0.029843 -0.002423 0.900000 0.029941
1.203333 0.036585 -0.030404 -0.004691 0.900000 0.030764
1.330000 0.036585 -0.026219 0.003150 0.900000 0.026407
1.456667 0.036585 -0.015478 -0.005092 0.900000 0.016294
1.583333 0.036585 -0.009841 -0.003835 0.900000 0.010562
1.710000 0.036585 -0.002141 0.007983 0.900000 0.008265
1.836667 0.036585 0.011794 -0.002437 0.900000 0.012043
1.963333 0.036585 0.014353 -0.001075 0.900000 0.014393
2.090000 0.036585 0.012249 0.000533 0.900000 0.012261
2.216667 0.036585 0.006687 -0.000124 0.900000 0.006688
2.343333 0.036585 0.016508 0.003014 0.900000 0.016781
2.470000 0.036585 0.020462 -0.001047 0.900000 0.020489
2.596667 0.036585 0.011157 -0.004682 0.900000 0.012099
2.723333 0.036585 0.022979 0.001316 0.900000 0.023017
2.850000 0.036585 0.031816 0.003130 0.900000 0.031970
2.976667 0.036585 0.050335 -0.003442 0.900000 0.050453
3.103333 0.036585 0.051782 0.000679 0.900000 0.051786
3.230000 0.036585 0.021340 -0.000704 0.900000 0.021352
3.356667 0.036585 0.031907 -0.010313 0.900000 0.033533
3.483333 0.036585 0.031570 0.008897 0.900000 0.032800
3.610000 0.036585 0.004520 0.000934 0.900000 0.004615
3.736667 0.036585 0.000000 0.000000 0.000000 0.000000
0.063333 0.051220 0.000000 0.000000 0.000000 0.000000
0.190000 0.051220 0.003812 -0.003333 0.900000 0.005064
0.316667 0.051220 0.017288 -0.007911 0.900000 0.019012
0.443333 0.051220 0.021687 0.005491 0.900000 0.022371
0.570000 0.051220 0.003545 0.008448 0.900000 0.009162
0.696667 0.051220 -0.033865 0.014439 0.900000 0.036814
0.823333 0.051220 -0.041668 -0.003925 0.900000 0.041853
0.950000 0.051220 -0.024390 -0.001433 0.900000 0.024432
1.076667 0.051220 -0.029302 -0.003641 0.900000 0.029527
1.203333 0.051220 -0.031617 -0.004520 0.900000 0.031938
1.330000 0.051220 -0.026487 0.002236 0.900000 0.026581
1.456667 0.051220 -0.015979 -0.002381 0.900000 0.016156
1.583333 0.051220 -0.007021 -0.001587 0.900000 0.007198
1.710000 0.051220 0.003285 0.005982 0.900000 0.006825
1.836667 0.051220 0.015561 -0.001990 0.900000 0.015688
1.963333 0.051220 0.016902 -0.001048 0.900000 0.016935
2.090000 0.051220 0.014550 0.000125 0.900000 0.014551
2.216667 0.051220 0.009066 -0.000260 0.900000 0.009070
2.343333 0.051220 0.018233 0.002620 0.900000 0.018421
2.470000 0.051220 0.021705 -0.000119 0.900000 0.021705
2.596667 0.051220 0.013358 -0.004759 0.900000 0.014181
2.723333 0.051220 0.025629 0.002078 0.900000 0.025713
2.850000 0.051220 0.033163 0.001898 0.900000 0.033217
2.976667 0.051220 0.042412 -0.006292 0.900000 0.042876
3.103333 0.051220 0.046481 0.006863 0.900000 0.046985
3.230000 0.051220 0.020957 0.001750 0.900000 0.021030
3.356667 0.051220 0.023494 -0.016068 0.900000 0.028463
3.483333 0.051220 0.026325 0.013183 0.900000 0.029441
3.610000 0.051220 0.004732 0.001554 0.900000 0.004981
3.736667 0.051220 0.000000 0.000000 0.000000 0.000000
0.063333 0.065854 0.000000 0.000000 0.000000 0.000000
0.190000 0.065854 0.003325 -0.004287 0.900000 0.005426
0.316667 0.065854 0.014635 -0.009929 0.900000 0.017685
0.443333 0.065854 0.016952 0.006820 0.900000 0.018273
0.570000 0.065854 0.004478 0.010701 0.900000 0.011600
0.696667 0.065854 -0.024567 0.021022 0.900000 0.032334
0.823333 0.065854 -0.031274 -0.007013 0.900000 0.032050
0.950000 0.065854 -0.017725 -0.004652 0.900000 0.018326
1.076667 0.065854 -0.028718 -0.004519 0.900000 0.029071
1.203333 0.065854 -0.032822 -0.004816 0.900000 0.033173
1.330000 0.065854 -0.026330 0.001416 0.900000 0.026368
1.456667 0.065854 -0.016673 -0.000770 0.900000 0.016691
1.583333 0.065854 -0.006391 0.000129 0.900000 0.006393
1.710000 0.065854 0.005944 0.004099 0.900000 0.007220
1.836667 0.065854 0.018508 -0.001372 0.900000 0.018559
1.963333 0.065854 0.019407 -0.000967 0.900000 0.019431
2.090000 0.065854 0.016226 -0.000129 0.900000 0.016226
2.216667 0.065854 0.010650 -0.000510 0.900000 0.010663
2.343333 0.065854 0.018795 0.002549 0.900000 0.018967
2.470000 0.065854 0.022804 0.000547 0.900000 0.022811
2.596667 0.065854 0.015979 -0.004947 0.900000 0.016727
2.723333 0.065854 0.027453 0.002844 0.900000 0.027600
2.850000 0.065854 0.034439 0.000556 0.900000 0.034443
2.976667 0.065854 0.037902 -0.007593 0.900000 0.038655
3.103333 0.065854 0.039053 0.009705 0.900000 0.040241
3.230000 0.065854 0.020007 0.003506 0.900000 0.020312
3.356667 0.065854 0.020134 -0.020616 0.900000 0.028816
3.483333 0.065854 0.021581 0.016284 0.900000 0.027035
3.610000 0.065854 0.004705 0.002094 0.900000 0.005150
3.736667 0.065854 0.000000 0.000000 0.000000 0.000000
0.063333 0.080488 0.000000 0.000000 0.000000 0.000000
0.190000 0.080488 0.002498 -0.005043 0.900000 0.005628
0.316667 0.080488 0.010646 -0.011285 0.900000 0.015514
0.443333 0.080488 0.010866 0.007637 0.900000 0.013282
0.570000 0.080488 0.001449 0.012086 0.900000 0.012173
0.696667 0.080488 -0.019286 0.026565 0.900000 0.032827
0.823333 0.080488 -0.025516 -0.009450 0.900000 0.027210
0.950000 0.080488 -0.018534 -0.007307 0.900000 0.019922
1.076667 0.080488 -0.030580 -0.005184 0.900000 0.031016
1.203333 0.080488 -0.033140 -0.005484 0.900000 0.033591
1.330000 0.080488 -0.026123 0.000692 0.900000 0.026132
1.456667 0.080488 -0.017545 -0.001027 0.900000 0.017575
1.583333 0.080488 -0.008512 0.001763 0.900000 0.008693
1.710000 0.080488 0.002781 0.002329 0.900000 0.003628
1.836667 0.080488 0.014334 -0.000753 0.900000 0.014354
1.963333 0.080488 0.014684 -0.000828 0.900000 0.014707
2.090000 0.080488 0.012030 -0.000359 0.900000 0.012035
2.216667 0.080488 0.006675 -0.000625 0.900000 0.006704
2.343333 0.080488 0.016844 0.002451 0.900000 0.017021
2.470000 0.080488 0.024055 0.000828 0.900000 0.024069
2.596667 0.080488 0.015422 -0.004872 0.900000 0.016173
2.723333 0.080488 0.026274 0.003347 0.900000 0.026487
2.850000 0.080488 0.034987 -0.000831 0.900000 0.034997
2.976667 0.080488 0.039783 -0.008490 0.900000 0.040679
3.103333 0.080488 0.040273 0.011464 0.900000 0.041873
3.230000 0.080488 0.019833 0.003543 0.900000 0.020147
3.356667 0.080488 0.016222 -0.023766 0.900000 0.028775
3.483333 0.080488 0.016978 0.018372 0.900000 0.025016
3.610000 0.080488 0.004447 0.002496 0.900000 0.005099
3.736667 0.080488 0.000000 0.000000 0.000000 0.000000
0.063333 0.095122 0.000000 0.000000 0.000000 0.000000
0.190000 0.095122 0.001586 -0.005554 0.900000 0.005776
0.316667 0.095122 0.006431 -0.012019 0.900000 0.013631
0.443333 0.095122 0.004642 0.007900 0.900000 0.009163
0.570000 0.095122 -0.002445 0.013081 0.900000 0.013307
0.696667 0.095122 -0.016387 0.030736 0.900000 0.034831
0.823333 0.095122 -0.021103 -0.010819 0.900000 0.023715
0.950000 0.095122 -0.019118 -0.009469 0.900000 0.021334
1.076667 0.095122 -0.031613 -0.005761 0.900000 0.032134
1.203333 0.095122 -0.032548 -0.006363 0.900000 0.033164
1.330000 0.095122 -0.025903 0.000131 0.900000 0.025903
1.456667 0.095122 -0.018503 -0.002087 0.900000 0.018621
1.583333 0.095122 -0.010852 0.003624 0.900000 0.011441
1.710000 0.095122 -0.000484 0.000590 0.900000 0.000763
1.836667 0.095122 0.010109 -0.000066 0.900000 0.010109
1.963333 0.095122 0.009954 -0.000746 0.900000 0.009982
2.090000 0.095122 0.007838 -0.000619 0.900000 0.007862
2.216667 0.095122 0.002975 -0.000525 0.900000 0.003021
2.343333 0.095122 0.015731 0.001954 0.900000 0.015852
2.470000 0.095122 0.025520 0.000816 0.900000 0.025533
2.596667 0.095122 0.015008 -0.004309 0.900000 0.015615
2.723333 0.095122 0.025145 0.003408 0.900000 0.025375
2.850000 0.095122 0.035345 -0.002163 0.900000 0.035411
2.976667 0.095122 0.033259 -0.008898 0.900000 0.034428
3.103333 0.095122 0.034258 0.011648 0.900000 0.036184
3.230000 0.095122 0.020750 0.003957 0.900000 0.021124
3.356667 0.095122 0.012526 -0.025752 0.900000 0.028637
3.483333 0.095122 0.012548 0.019582 0.900000 0.023257
3.610000 0.095122 0.004008 0.002699 0.900000 0.004833
3.736667 0.095122 0.000000 0.000000 0.000000 0.000000
0.063333 0.109756 0.000000 0.000000 0.000000 0.000000
0.190000 0.109756 0.000621 -0.005807 0.900000 0.005840
0.316667 0.109756 0.002174 -0.012138 0.900000 0.012331
0.443333 0.109756 -0.001290 0.007592 0.900000 0.007700
0.570000 0.109756 -0.005918 0.013784 0.900000 0.015001
0.696667 0.109756 -0.009998 0.033269 0.900000 0.034738
0.823333 0.109756 -0.013592 -0.010955 0.900000 0.017458
0.950000 0.109756 -0.019466 -0.011169 0.900000 0.022443
1.076667 0.109756 -0.029213 -0.006557 0.900000 0.029940
1.203333 0.109756 -0.029384 -0.006995 0.900000 0.030205
1.330000 0.109756 -0.026060 -0.000489 0.900000 0.026065
1.456667 0.109756 -0.019220 -0.002771 0.900000 0.019419
1.583333 0.109756 -0.009519 0.005488 0.900000 0.010988
1.710000 0.109756 0.002817 -0.001228 0.900000 0.003073
1.836667 0.109756 0.012361 0.000807 0.900000 0.012387
1.963333 0.109756 0.011913 -0.000754 0.900000 0.011937
2.090000 0.109756 0.010137 -0.000842 0.900000 0.010172
2.216667 0.109756 0.005355 -0.000411 0.900000 0.005371
2.343333 0.109756 0.017130 0.001439 0.900000 0.017191
2.470000 0.109756 0.026352 0.000626 0.900000 0.026360
2.596667 0.109756 0.017325 -0.003644 0.900000 0.017704
2.723333 0.109756 0.027530 0.003430 0.900000 0.027743
2.850000 0.109756 0.036008 -0.003396 0.900000 0.036168
2.976667 0.109756 0.026531 -0.007892 0.900000 0.027680
3.103333 0.109756 0.027272 0.010007 0.900000 0.029050
3.230000 0.109756 0.024211 0.005648 0.900000 0.024861
3.356667 0.109756 0.013004 -0.026348 0.900000 0.029382
3.483333 0.109756 0.008880 0.020065 0.900000 0.021942
3.610000 0.109756 0.003743 0.002877 0.900000 0.004720
3.736667 0.109756 0.000000 0.000000 0.000000 0.000000
0.063333 0.124390 0.000000 0.000000 0.000000 0.000000
0.190000 0.124390 -0.000251 -0.005808 0.900000 0.005813
0.316667 0.124390 -0.001693 -0.011684 0.900000 0.011806
0.443333 0.124390 -0.006635 0.006701 0.900000 0.009430
0.570000 0.124390 -0.009500 0.014281 0.900000 0.017152
0.696667 0.124390 -0.002925 0.033686 0.900000 0.033813
0.823333 0.124390 -0.004069 -0.009444 0.900000 0.010284
0.950000 0.124390 -0.017979 -0.012511 0.900000 0.021904
1.076667 0.124390 -0.027127 -0.007646 0.900000 0.028183
1.203333 0.124390 -0.027912 -0.007079 0.900000 0.028796
1.330000 0.124390 -0.026869 -0.001478 0.900000 0.026910
1.456667 0.124390 -0.019991 -0.003024 0.900000 0.020218
1.583333 0.124390 -0.007540 0.007056 0.900000 0.010327
1.710000 0.124390 0.000635 -0.002345 0.900000 0.002430
1.836667 0.124390 0.008778 0.001196 0.900000 0.008859
1.963333 0.124390 0.014192 -0.000838 0.900000 0.014216
2.090000 0.124390 0.012983 -0.001036 0.900000 0.013025
2.216667 0.124390 0.008150 -0.000348 0.900000 0.008158
2.343333 0.124390 0.018488 0.001278 0.900000 0.018532
2.470000 0.124390 0.027501 0.000262 0.900000 0.027503
2.596667 0.124390 0.020079 -0.003174 0.900000 0.020328
2.723333 0.124390 0.030055 0.003733 0.900000 0.030286
2.850000 0.124390 0.036498 -0.004444 0.900000 0.036768
2.976667 0.124390 0.027157 -0.006402 0.900000 0.027902
3.103333 0.124390 0.027464 0.008213 0.900000 0.028666
3.230000 0.124390 0.026603 0.006945 0.900000 0.027495
3.356667 0.124390 0.012991 -0.025372 0.899999 0.028505
3.483333 0.124390 0.005633 0.019865 0.900000 0.020648
3.610000 0.124390 0.003751 0.003317 0.900000 0.005007
3.736667 0.124390 0.000000 0.000000 0.000000 0.000000
0.063333 0.139024 0.000000 0.000000 0.000000 0.000000
0.190000 0.139024 -0.000476 -0.005644 0.900000 0.005664
0.316667 0.139024 -0.003293 -0.010791 0.900000 0.011283
0.443333 0.139024 -0.008353 0.005116 0.900000 0.009795
0.570000 0.139024 -0.008921 0.014643 0.900000 0.017146
0.696667 0.139024 0.001045 0.032692 0.900000 0.032709
0.823333 0.139024 0.004480 -0.007354 0.900000 0.008611
0.950000 0.139024 -0.009959 -0.013262 0.899999 0.016585
1.076667 0.139024 -0.026146 -0.008353 0.900000 0.027447
1.203333 0.139024 -0.029626 -0.007062 0.900000 0.030456
1.330000 0.139024 -0.027488 -0.002434 0.900000 0.027596
1.456667 0.139024 -0.020790 -0.003041 0.900000 0.021011
1.583333 0.139024 -0.009096 0.008613 0.900000 0.012527
1.710000 0.139024 -0.004949 -0.002438 0.900000 0.005517
1.836667 0.139024 0.005668 0.000328 0.900000 0.005677
1.963333 0.139024 0.016861 -0.000924 0.900000 0.016887
2.090000 0.139024 0.015515 -0.001191 0.900000 0.015561
2.216667 0.139024 0.010533 -0.000326 0.900000 0.010538
2.343333 0.139024 0.019811 0.001449 0.900000 0.019864
2.470000 0.139024 0.029196 -0.000369 0.900000 0.029198
2.596667 0.139024 0.023241 -0.002784 0.900000 0.023408
2.723333 0.139024 0.031866 0.004425 0.900000 0.032172
2.850000 0.139024 0.036352 -0.005321 0.900000 0.036739
2.976667 0.139024 0.027399 -0.005253 0.900000 0.027898
3.103333 0.139024 0.026055 0.006997 0.899998 0.026978
3.230000 0.139024 0.025334 0.007104 0.900000 0.026311
3.356667 0.139024 0.011375 -0.023303 0.899993 0.025931
3.483333 0.139024 0.002806 0.019131 0.900000 0.019335
3.610000 0.139024 0.003336 0.003880 0.900000 0.005117
3.736667 0.139024 0.000000 0.000000 0.000000 0.000000
0.063333 0.153659 0.000000 0.000000 0.000000 0.000000
0.190000 0.153659 -0.000710 -0.005391 0.900000 0.005437
0.316667 0.153659 -0.002908 -0.009795 0.899999 0.010217
0.443333 0.153659 -0.009303 0.003353 0.899997 0.009889
0.570000 0.153659 -0.008475 0.014587 0.900000 0.016870
0.696667 0.153659 0.004360 0.031456 0.900000 0.031756
0.823333 0.153659 0.010081 -0.005860 0.899999 0.011661
0.950000 0.153659 -0.004323 -0.013185 0.899992 0.013876
1.076667 0.153659 -0.025974 -0.008429 0.899997 0.027308
1.203333 0.153659 -0.030890 -0.007294 0.899998 0.031740
1.330000 0.153659 -0.028018 -0.002842 0.899991 0.028161
1.456667 0.153659 -0.021480 -0.002955 0.899995 0.021682
1.583333 0.153659 -0.005302 0.009883 0.900000 0.011216
1.710000 0.153659 0.000691 -0.002089 0.900000 0.002200
1.836667 0.153659 0.008506 -0.001147 0.900000 0.008583
1.963333 0.153659 0.019211 -0.000913 0.900000 0.019232
2.090000 0.153659 0.017265 -0.001244 0.900000 0.017310
2.216667 0.153659 0.012321 -0.000416 0.900000 0.012328
2.343333 0.153659 0.020827 0.001945 0.900000 0.020917
2.470000 0.153659 0.030783 -0.001336 0.900000 0.030812
2.596667 0.153659 0.026325 -0.002373 0.900000 0.026431
2.723333 0.153659 0.033656 0.005543 0.900000 0.034110
2.850000 0.153659 0.036702 -0.005646 0.900000 0.037133
2.976667 0.153659 0.027916 -0.004314 0.900000 0.028248
3.103333 0.153659 0.024963 0.006059 0.899959 0.025688
3.230000 0.153659 0.024767 0.006801 0.900000 0.025683
3.356667 0.153659 0.010124 -0.020473 0.899953 0.022840
3.483333 0.153659 0.000016 0.018098 0.900000 0.018098
3.610000 0.153659 0.002894 0.004329 0.900000 0.005207
3.736667 0.153659 0.000000 0.000000 0.000000 0.000000
0.063333 0.168293 0.000000 0.000000 0.000000 0.000000
0.190000 0.168293 -0.001591 -0.004973 0.900000 0.005221
0.316667 0.168293 -0.005065 -0.008775 0.899983 0.010132
0.443333 0.168293 -0.013946 0.002085 0.899972 0.014101
0.570000 0.168293 -0.012401 0.013913 0.900000 0.018638
0.696667 0.168293 0.004223 0.030098 0.900000 0.030393
0.823333 0.168293 0.010959 -0.004753 0.899992 0.011945
0.950000 0.168293 -0.004939 -0.012497 0.899914 0.013438
1.076667 0.168293 -0.027697 -0.008278 0.899976 0.028907
1.203333 0.168293 -0.031571 -0.007709 0.899967 0.032499
1.330000 0.168293 -0.028607 -0.002809 0.899877 0.028745
1.456667 0.168293 -0.022412 -0.002806 0.899948 0.022587
1.583333 0.168293 -0.001156 0.010154 0.900000 0.010220
1.710000 0.168293 0.006587 -0.001347 0.900000 0.006723
1.836667 0.168293 0.008135 -0.002239 0.900000 0.008438
1.963333 0.168293 0.015463 -0.000919 0.900000 0.015491
2.090000 0.168293 0.013000 -0.001201 0.899998 0.013056
2.216667 0.168293 0.007903 -0.000566 0.900000 0.007923
2.343333 0.168293 0.019622 0.002262 0.900000 0.019752
2.470000 0.168293 0.029617 -0.002063 0.899996 0.029689
2.596667 0.168293 0.022713 -0.002024 0.900000 0.022803
2.723333 0.168293 0.032452 0.005760 0.899999 0.032959
2.850000 0.168293 0.037251 -0.005171 0.899993 0.037608
2.976667 0.168293 0.028456 -0.003441 0.899996 0.028663
3.103333 0.168293 0.023984 0.005199 0.899494 0.024541
3.230000 0.168293 0.024470 0.006231 0.899999 0.025250
3.356667 0.168293 0.007749 -0.016748 0.899724 0.018454
3.483333 0.168293 -0.003788 0.016648 0.900000 0.017074
3.610000 0.168293 0.002392 0.004651 0.900000 0.005230
3.736667 0.168293 0.000000 0.000000 0.000000 0.000000
0.063333 0.182927 0.000000 0.000000 0.000000 0.000000
0.190000 0.182927 -0.002464 -0.004317 0.899994 0.004971
0.316667 0.182927 -0.007908 -0.007504 0.899799 0.010901
0.443333 0.182927 -0.019287 0.001267 0.899768 0.019329
0.570000 0.182927 -0.017303 0.012812 0.900000 0.021530
0.696667 0.182927 0.002571 0.028373 0.899998 0.028490
0.823333 0.182927 0.011426 -0.003843 0.899906 0.012055
0.950000 0.182927 -0.004945 -0.011413 0.899262 0.012439
1.076667 0.182927 -0.028357 -0.008031 0.899742 0.029472
1.203333 0.182927 -0.031369 -0.008224 0.899624 0.032429
1.330000 0.182927 -0.028905 -0.002489 0.898796 0.029012
1.456667 0.182927 -0.023647 -0.002621 0.899571 0.023792
1.583333 0.182927 -0.002452 0.009917 0.899999 0.010216
1.710000 0.182927 0.007230 -0.000575 0.899999 0.007253
1.836667 0.182927 0.007784 -0.002616 0.899994 0.008212
1.963333 0.182927 0.011999 -0.001108 0.899998 0.012050
2.090000 0.182927 0.009243 -0.001103 0.899965 0.009308
2.216667 0.182927 0.003476 -0.000618 0.900000 0.003531
2.343333 0.182927 0.018395 0.001803 0.900000 0.018484
2.470000 0.182927 0.028311 -0.001874 0.899951 0.028373
2.596667 0.182927 0.018465 -0.001882 0.899992 0.018561
2.723333 0.182927 0.031061 0.003785 0.899993 0.031290
2.850000 0.182927 0.035826 -0.004258 0.899880 0.036078
2.976667 0.182927 0.026865 -0.002774 0.899925 0.027008
3.103333 0.182927 0.022994 0.004201 0.896347 0.023374
3.230000 0.182927 0.024245 0.005370 0.899992 0.024832
3.356667 0.182927 0.005688 -0.012120 0.898466 0.013388
3.483333 0.182927 -0.007086 0.014686 0.900000 0.016306
3.610000 0.182927 0.001789 0.004835 0.900000 0.005156
3.736667 0.182927 0.000000 0.000000 0.000000 0.000000
0.063333 0.197561 0.000000 0.000000 0.000000 0.000000
0.190000 0.197561 -0.003381 -0.003421 0.899854 0.004810
0.316667 0.197561 -0.011006 -0.005851 0.897959 0.012465
0.443333 0.197561 -0.024166 0.000702 0.898296 0.024177
0.570000 0.197561 -0.021572 0.011475 0.899999 0.024434
0.696667 0.197561 0.003992 0.025896 0.899979 0.026202
0.823333 0.197561 0.014651 -0.002946 0.899018 0.014944
0.950000 0.197561 -0.004897 -0.009967 0.894708 0.011105
1.076667 0.197561 -0.025656 -0.007927 0.897139 0.026852
1.203333 0.197561 -0.028523 -0.008361 0.897035 0.029723
1.330000 0.197561 -0.028817 -0.001950 0.891826 0.028883
1.456667 0.197561 -0.024338 -0.002451 0.897532 0.024461
1.583333 0.197561 -0.003622 0.008889 0.899997 0.009598
1.710000 0.197561 0.007921 -0.000258 0.899961 0.007925
1.836667 0.197561 0.010126 -0.002524 0.899736 0.010436
1.963333 0.197561 0.014352 -0.001414 0.899835 0.014422
2.090000 0.197561 0.011993 -0.000979 0.899370 0.012033
2.216667 0.197561 0.005639 -0.000543 0.899964 0.005665
2.343333 0.197561 0.019374 0.000992 0.899994 0.019399
2.470000 0.197561 0.029596 -0.001291 0.899321 0.029624
2.596667 0.197561 0.020918 -0.001865 0.899659 0.021001
2.723333 0.197561 0.030919 0.001118 0.899687 0.030939
2.850000 0.197561 0.032901 -0.003308 0.897945 0.033067
2.976667 0.197561 0.025268 -0.002393 0.898386 0.025381
3.103333 0.197561 0.022238 0.002552 0.885819 0.022384
3.230000 0.197561 0.024835 0.004463 0.899964 0.025233
3.356667 0.197561 0.003605 -0.006737 0.891919 0.007641
3.483333 0.197561 -0.008555 0.012142 0.899999 0.014854
3.610000 0.197561 0.002656 0.005049 0.899990 0.005705
3.736667 0.197561 0.000000 0.000000 0.000000 0.000000
0.063333 0.212195 0.000000 0.000000 0.000000 0.000000
0.190000 0.212195 -0.004541 -0.002223 0.895980 0.005056
0.316667 0.212195 -0.012734 -0.003815 0.882328 0.013293
0.443333 0.212195 -0.026857 0.000329 0.889136 0.026859
0.570000 0.212195 -0.026435 0.010117 0.899956 0.028305
0.696667 0.212195 0.004866 0.022106 0.899887 0.022636
0.823333 0.212195 0.017880 -0.001711 0.890894 0.017962
0.950000 0.212195 -0.003626 -0.007987 0.869454 0.008772
1.076667 0.212195 -0.021363 -0.007744 0.876472 0.022723
1.203333 0.212195 -0.026702 -0.007424 0.881390 0.027715
1.330000 0.212195 -0.027097 -0.001669 0.862742 0.027148
1.456667 0.212195 -0.025193 -0.002187 0.888163 0.025288
1.583333 0.212195 -0.006479 0.005885 0.899991 0.008753
1.710000 0.212195 0.008302 -0.000349 0.898589 0.008309
1.836667 0.212195 0.012067 -0.002330 0.892166 0.012290
1.963333 0.212195 0.016524 -0.001712 0.892456 0.016612
2.090000 0.212195 0.014815 -0.000884 0.889535 0.014841
2.216667 0.212195 0.008637 -0.000383 0.897495 0.008645
2.343333 0.212195 0.020380 0.000454 0.899255 0.020385
2.470000 0.212195 0.030164 -0.000949 0.889980 0.030179
2.596667 0.212195 0.023240 -0.001673 0.887465 0.023301
2.723333 0.212195 0.030027 -0.000503 0.892119 0.030031
2.850000 0.212195 0.029412 -0.002568 0.869657 0.029524
2.976667 0.212195 0.025738 -0.001925 0.871112 0.025810
3.103333 0.212195 0.021727 0.000575 0.855123 0.021734
3.230000 0.212195 0.022404 0.004020 0.891671 0.022762
3.356667 0.212195 -0.001481 -0.001128 0.856658 0.001862
3.483333 0.212195 -0.010626 0.008097 0.872172 0.013359
3.610000 0.212195 0.002268 0.004593 0.853072 0.005123
3.736667 0.212195 0.000000 0.000000 0.000000 0.000000
0.063333 0.226829 0.000000 0.000000 0.000000 0.000000
0.190000 0.226829 -0.001571 -0.000662 0.778108 0.001705
0.316667 0.226829 -0.003930 -0.001499 0.781588 0.004207
0.443333 0.226829 -0.014842 0.000245 0.816685 0.014844
0.570000 0.226829 -0.019557 0.007680 0.856477 0.021011
0.696667 0.226829 0.005295 0.016129 0.872763 0.016976
0.823333 0.226829 0.015744 -0.000671 0.817888 0.015758
0.950000 0.226829 0.002561 -0.004659 0.773626 0.005317
1.076667 0.226829 -0.011805 -0.005167 0.785595 0.012886
1.203333 0.226829 -0.021308 -0.004540 0.799930 0.021786
1.330000 0.226829 -0.020597 -0.001989 0.790917 0.020693
1.456667 0.226829 -0.019093 -0.001269 0.812364 0.019136
1.583333 0.226829 -0.006970 0.001254 0.830916 0.007082
1.710000 0.226829 0.006578 -0.000490 0.807228 0.006597
1.836667 0.226829 0.009877 -0.001426 0.780454 0.009979
1.963333 0.226829 0.011799 -0.001132 0.763690 0.011854
2.090000 0.226829 0.009913 -0.000509 0.744453 0.009926
2.216667 0.226829 0.006428 -0.000108 0.736103 0.006429
2.343333 0.226829 0.010008 0.000119 0.721899 0.010008
2.470000 0.226829 0.011646 -0.000347 0.695137 0.011651
2.596667 0.226829 0.007866 -0.000339 0.675011 0.007873
2.723333 0.226829 0.007944 -0.000234 0.667021 0.007948
2.850000 0.226829 0.004827 -0.000373 0.641490 0.004842
2.976667 0.226829 0.002682 -0.000181 0.623307 0.002689
3.103333 0.226829 0.006686 -0.000061 0.662787 0.006686
3.230000 0.226829 0.004062 0.000965 0.658863 0.004175
3.356667 0.226829 -0.000164 0.000112 0.608731 0.000199
3.483333 0.226829 -0.003691 0.001411 0.674815 0.003951
3.610000 0.226829 0.000003 0.000754 0.640190 0.000754
3.736667 0.226829 0.000000 0.000000 0.000000 0.000000
0.063333 0.241463 0.000000 0.000000 0.000000 0.000000
0.190000 0.241463 -0.000001 -0.000004 0.603138 0.000004
0.316667 0.241463 0.000001 -0.000001 0.600171 0.000002
0.443333 0.241463 -0.000350 0.000022 0.613059 0.000351
0.570000 0.241463 -0.002162 0.002061 0.676978 0.002987
0.696667 0.241463 0.004616 0.006461 0.729307 0.007941
0.823333 0.241463 0.000625 -0.000047 0.608184 0.000626
0.950000 0.241463 0.000011 -0.000006 0.600236 0.000013
1.076667 0.241463 -0.000007 -0.000004 0.600159 0.000008
1.203333 0.241463 -0.000374 -0.000073 0.603838 0.000381
1.330000 0.241463 -0.005463 -0.000926 0.655775 0.005541
1.456667 0.241463 -0.002609 -0.000099 0.629881 0.002611
1.583333 0.241463 -0.000431 -0.000163 0.616898 0.000460
1.710000 0.241463 0.000343 -0.000029 0.607147 0.000344
1.836667 0.241463 0.000108 -0.000011 0.601388 0.000109
1.963333 0.241463 0.000077 -0.000006 0.600835 0.000077
2.090000 0.241463 0.000502 -0.000027 0.605977 0.000502
2.216667 0.241463 0.000348 -0.000002 0.605900 0.000348
2.343333 0.241463 0.000381 0.000008 0.604476 0.000381
2.470000 0.241463 0.000076 -0.000003 0.600606 0.000076
2.596667 0.241463 0.000119 -0.000002 0.601066 0.000119
2.723333 0.241463 0.000084 -0.000002 0.600717 0.000084
2.850000 0.241463 0.000016 -0.000001 0.600151 0.000016
2.976667 0.241463 0.000001 -0.000000 0.600009 0.000001
3.103333 0.241463 0.000911 0.000001 0.609507 0.000911
3.230000 0.241463 0.000562 0.000217 0.610227 0.000603
3.356667 0.241463 -0.000017 0.000021 0.600805 0.000027
3.483333 0.241463 -0.000373 0.000080 0.607784 0.000382
3.610000 0.241463 -0.000021 0.000058 0.603302 0.000062
3.736667 0.241463 0.000000 0.000000 0.000000 0.000000
0.063333 0.256098 0.000000 0.000000 0.000000 0.000000
0.190000 0.256098 -0.000000 0.000000 0.600049 0.000000
0.316667 0.256098 0.000000 -0.000000 0.600001 0.000000
0.443333 0.256098 -0.000007 0.000000 0.600294 0.000007
0.570000 0.256098 -0.000117 0.000282 0.612014 0.000305
0.696667 0.256098 0.001005 0.001848 0.636954 0.002104
0.823333 0.256098 0.000070 -0.000020 0.601461 0.000073
0.950000 0.256098 0.000001 -0.000001 0.600026 0.000001
1.076667 0.256098 -0.000001 -0.000000 0.600010 0.000001
1.203333 0.256098 -0.000029 -0.000005 0.600310 0.000030
1.330000 0.256098 -0.000600 -0.000117 0.606229 0.000612
1.456667 0.256098 -0.000420 -0.000018 0.604426 0.000420
1.583333 0.256098 -0.000004 -0.000003 0.600123 0.000005
1.710000 0.256098 0.000002 -0.000000 0.600041 0.000002
1.836667 0.256098 0.000001 -0.000000 0.600012 0.000001
1.963333 0.256098 0.000001 -0.000000 0.600016 0.000001
2.090000 0.256098 0.000034 -0.000003 0.600508 0.000034
2.216667 0.256098 0.000015 0.000000 0.600359 0.000015
2.343333 0.256098 0.000010 0.000000 0.600125 0.000010
2.470000 0.256098 0.000001 -0.000000 0.600008 0.000001
2.596667 0.256098 0.000005 0.000000 0.600055 0.000005
2.723333 0.256098 0.000000 -0.000000 0.600004 0.000000
2.850000 0.256098 0.000000 -0.000000 0.600000 0.000000
2.976667 0.256098 0.000000 -0.000000 0.600000 0.000000
3.103333 0.256098 0.000081 0.000001 0.600958 0.000081
3.230000 0.256098 0.000076 0.000039 0.601489 0.000085
3.356667 0.256098 -0.000002 0.000003 0.600069 0.000003
3.483333 0.256098 -0.000016 0.000001 0.600322 0.000016
3.610000 0.256098 -0.000001 0.000003 0.600166 0.000003
3.736667 0.256098 0.000000 0.000000 0.000000 0.000000
0.063333 0.270732 0.000000 0.000000 0.000000 0.000000
0.190000 0.270732 -0.000000 0.000000 0.600001 0.000000
0.316667 0.270732 -0.000000 0.000000 0.600000 0.000000
0.443333 0.270732 -0.000001 -0.000000 0.600022 0.000001
0.570000 0.270732 -0.000011 0.000021 0.601103 0.000024