TITLE="(Vx,Vy)"
VARIABLES=X,Y,Vx,Vy,Vm,V
ZONE T="T-Dummy" I=30, J=41, F=POINT
0.063333 0.007317 0.000000 0.000000 0.000000 0.000000
0.190000 0.007317 0.000000 0.000000 0.000000 0.000000
0.316667 0.007317 0.000000 0.000000 0.000000 0.000000
0.443333 0.007317 0.000000 0.000000 0.000000 0.000000
0.570000 0.007317 0.000000 0.000000 0.000000 0.000000
0.696667 0.007317 0.000000 0.000000 0.000000 0.000000
0.823333 0.007317 0.000000 0.000000 0.000000 0.000000
0.950000 0.007317 0.000000 0.000000 0.000000 0.000000
1.076667 0.007317 0.000000 0.000000 0.000000 0.000000
1.203333 0.007317 0.000000 0.000000 0.000000 0.000000
1.330000 0.007317 0.000000 0.000000 0.000000 0.000000
1.456667 0.007317 0.000000 0.000000 0.000000 0.000000
1.583333 0.007317 0.000000 0.000000 0.000000 0.000000
1.710000 0.007317 0.000000 0.000000 0.000000 0.000000
1.836667 0.007317 0.000000 0.000000 0.000000 0.000000
1.963333 0.007317 0.000000 0.000000 0.000000 0.000000
2.090000 0.007317 0.000000 0.000000 0.000000 0.000000
2.216667 0.007317 0.000000 0.000000 0.000000 0.000000
2.343333 0.007317 0.000000 0.000000 0.000000 0.000000
2.470000 0.007317 0.000000 0.000000 0.000000 0.000000
2.596667 0.007317 0.000000 0.000000 0.000000 0.000000
2.723333 0.007317 0.000000 0.000000 0.000000 0.000000
2.850000 0.007317 0.000000 0.000000 0.000000 0.000000
2.976667 0.007317 0.000000 0.000000 0.000000 0.000000
3.103333 0.007317 0.000000 0.000000 0.000000 0.000000
3.230000 0.007317 0.000000 0.000000 0.000000 0.000000
3.356667 0.007317 0.000000 0.000000 0.000000 0.000000
3.483333 0.007317 0.000000 0.000000 0.000000 0.000000
3.610000 0.007317 0.000000 0.000000 0.000000 0.000000
3.736667 0.007317 0.000000 0.000000 0.000000 0.000000
0.063333 0.021951 0.000000 0.000000 0.000000 0.000000
0.190000 0.021951 0.002173 -0.000310 0.900000 0.002195
0.316667 0.021951 0.004755 -0.000091 0.900000 0.004756
0.443333 0.021951 0.007958 -0.000425 0.900000 0.007969
0.570000 0.021951 0.004075 0.000602 0.900000 0.004119
0.696667 0.021951 0.001951 -0.000463 0.900000 0.002006
0.823333 0.021951 0.005195 0.000035 0.900000 0.005196
0.950000 0.021951 0.011009 -0.000936 0.900000 0.011048
1.076667 0.021951 0.019684 -0.000213 0.900000 0.019685
1.203333 0.021951 0.025395 -0.000167 0.900000 0.025396
1.330000 0.021951 0.029849 -0.000447 0.900000 0.029852
1.456667 0.021951 0.021690 0.000687 0.900000 0.021701
1.583333 0.021951 0.022252 -0.001077 0.900000 0.022278
1.710000 0.021951 0.022877 0.000816 0.900000 0.022891
1.836667 0.021951 0.015153 -0.000195 0.900000 0.015154
1.963333 0.021951 0.018838 -0.000331 0.900000 0.018841
2.090000 0.021951 0.022187 -0.000237 0.900000 0.022189
2.216667 0.021951 0.023593 -0.000163 0.900000 0.023594
2.343333 0.021951 0.022579 -0.000236 0.900000 0.022581
2.470000 0.021951 0.017913 0.000498 0.900000 0.017920
2.596667 0.021951 0.015259 -0.000094 0.900000 0.015260
2.723333 0.021951 0.020858 -0.000464 0.900000 0.020863
2.850000 0.021951 0.022077 0.000438 0.900000 0.022081
2.976667 0.021951 0.017212 -0.000270 0.900000 0.017214
3.103333 0.021951 0.013440 0.000905 0.900000 0.013471
3.230000 0.021951 0.017354 -0.000911 0.900000 0.017378
3.356667 0.021951 0.028052 -0.000488 0.900000 0.028056
3.483333 0.021951 0.025350 0.000736 0.900000 0.025360
3.610000 0.021951 0.009611 0.001040 0.900000 0.009667
3.736667 0.021951 0.000000 0.000000 0.000000 0.000000
0.063333 0.036585 0.000000 0.000000 0.000000 0.000000
0.190000 0.036585 0.001628 -0.000867 0.900000 0.001844
0.316667 0.036585 0.003656 -0.000273 0.900000 0.003666
0.443333 0.036585 0.005901 -0.001139 0.900000 0.006010
0.570000 0.036585 0.003452 0.001618 0.900000 0.003812
0.696667 0.036585 -0.006447 0.000259 0.900000 0.006452
0.823333 0.036585 -0.005198 -0.000864 0.900000 0.005270
0.950000 0.036585 0.001509 -0.001772 0.900000 0.002327
1.076667 0.036585 0.004943 -0.000958 0.900000 0.005035
1.203333 0.036585 0.016246 -0.000709 0.900000 0.016262
1.330000 0.036585 0.018630 -0.001292 0.900000 0.018675
1.456667 0.036585 0.010906 0.000678 0.900000 0.010927
1.583333 0.036585 0.015700 -0.002291 0.900000 0.015866
1.710000 0.036585 0.025051 0.001078 0.900000 0.025074
1.836667 0.036585 0.027493 -0.000535 0.900000 0.027499
1.963333 0.036585 0.030029 -0.000671 0.900000 0.030037
2.090000 0.036585 0.030619 -0.000352 0.900000 0.030621
2.216667 0.036585 0.030002 -0.000324 0.900000 0.030004
2.343333 0.036585 0.026211 -0.000902 0.900000 0.026227
2.470000 0.036585 0.027515 0.000527 0.900000 0.027520
2.596667 0.036585 0.031239 -0.000231 0.900000 0.031240
2.723333 0.036585 0.030441 -0.000841 0.900000 0.030452
2.850000 0.036585 0.030319 0.000915 0.900000 0.030333
2.976667 0.036585 0.024780 -0.000436 0.900000 0.024784
3.103333 0.036585 0.019214 0.001894 0.900000 0.019307
3.230000 0.036585 0.021479 -0.002273 0.900000 0.021599
3.356667 0.036585 0.027064 -0.001173 0.900000 0.027090
3.483333 0.036585 0.023424 0.002086 0.900000 0.023517
3.610000 0.036585 0.009121 0.003058 0.900000 0.009620
3.736667 0.036585 0.000000 0.000000 0.000000 0.000000
0.063333 0.051220 0.000000 0.000000 0.000000 0.000000
0.190000 0.051220 0.001139 -0.001301 0.900000 0.001729
0.316667 0.051220 0.002665 -0.000456 0.900000 0.002704
0.443333 0.051220 0.004307 -0.001627 0.900000 0.004604
0.570000 0.051220 0.003126 0.002293 0.900000 0.003877
0.696667 0.051220 -0.002820 0.002344 0.900000 0.003667
0.823333 0.051220 -0.001254 -0.002507 0.900000 0.002803
0.950000 0.051220 0.005630 -0.001773 0.900000 0.005903
1.076667 0.051220 0.008245 -0.001677 0.900000 0.008414
1.203333 0.051220 0.016102 -0.001358 0.900000 0.016159
1.330000 0.051220 0.017866 -0.002041 0.900000 0.017982
1.456667 0.051220 0.010766 -0.000746 0.900000 0.010792
1.583333 0.051220 0.016175 -0.002592 0.900000 0.016381
1.710000 0.051220 0.024292 0.000168 0.900000 0.024293
1.836667 0.051220 0.026513 -0.000943 0.900000 0.026530
1.963333 0.051220 0.030163 -0.000714 0.900000 0.030172
2.090000 0.051220 0.031036 -0.000145 0.900000 0.031036
2.216667 0.051220 0.030474 -0.000311 0.900000 0.030476
2.343333 0.051220 0.026777 -0.001791 0.900000 0.026837
2.470000 0.051220 0.026799 -0.000231 0.900000 0.026800
2.596667 0.051220 0.030081 -0.000418 0.900000 0.030084
2.723333 0.051220 0.030648 -0.000702 0.900000 0.030656
2.850000 0.051220 0.029912 0.001096 0.900000 0.029932
2.976667 0.051220 0.024708 -0.000383 0.900000 0.024711
3.103333 0.051220 0.020517 0.002090 0.900000 0.020624
3.230000 0.051220 0.022498 -0.003051 0.900000 0.022704
3.356667 0.051220 0.026019 -0.001376 0.900000 0.026056
3.483333 0.051220 0.021684 0.003202 0.900000 0.021920
3.610000 0.051220 0.008713 0.004969 0.900000 0.010030
3.736667 0.051220 0.000000 0.000000 0.000000 0.000000
0.063333 0.065854 0.000000 0.000000 0.000000 0.000000
0.190000 0.065854 0.000716 -0.001628 0.900000 0.001778
0.316667 0.065854 0.001772 -0.000634 0.900000 0.001882
0.443333 0.065854 0.003013 -0.001959 0.900000 0.003594
0.570000 0.065854 0.003184 0.002663 0.900000 0.004151
0.696667 0.065854 0.000348 0.003932 0.900000 0.003947
0.823333 0.065854 0.002152 -0.003760 0.900000 0.004332
0.950000 0.065854 0.009547 -0.002136 0.900000 0.009783
1.076667 0.065854 0.011271 -0.001709 0.900000 0.011399
1.203333 0.065854 0.017502 -0.001994 0.900000 0.017615
1.330000 0.065854 0.018635 -0.002503 0.900000 0.018802
1.456667 0.065854 0.011605 -0.002359 0.900000 0.011843
1.583333 0.065854 0.017691 -0.002818 0.900000 0.017914
1.710000 0.065854 0.023536 -0.000372 0.900000 0.023539
1.836667 0.065854 0.025539 -0.001594 0.900000 0.025589
1.963333 0.065854 0.030225 -0.000792 0.900000 0.030236
2.090000 0.065854 0.031112 0.000008 0.900000 0.031112
2.216667 0.065854 0.030471 -0.000290 0.900000 0.030472
2.343333 0.065854 0.027058 -0.002771 0.900000 0.027199
2.470000 0.065854 0.026130 -0.000653 0.900000 0.026139
2.596667 0.065854 0.028997 -0.000810 0.900000 0.029009
2.723333 0.065854 0.030722 -0.000619 0.900000 0.030728
2.850000 0.065854 0.029438 0.001444 0.900000 0.029473
2.976667 0.065854 0.024642 -0.000639 0.900000 0.024650
3.103333 0.065854 0.021739 0.002325 0.900000 0.021863
3.230000 0.065854 0.023058 -0.003569 0.900000 0.023333
3.356667 0.065854 0.025013 -0.001353 0.900000 0.025049
3.483333 0.065854 0.020393 0.004145 0.900000 0.020810
3.610000 0.065854 0.008309 0.006786 0.900000 0.010728
3.736667 0.065854 0.000000 0.000000 0.000000 0.000000
0.063333 0.080488 0.000000 0.000000 0.000000 0.000000
0.190000 0.080488 0.000265 -0.001851 0.900000 0.001870
0.316667 0.080488 0.000766 -0.000794 0.900000 0.001103
0.443333 0.080488 0.001648 -0.002178 0.900000 0.002731
0.570000 0.080488 0.002412 0.002815 0.900000 0.003707
0.696667 0.080488 0.002069 0.005084 0.900000 0.005489
0.823333 0.080488 0.004009 -0.004642 0.900000 0.006133
0.950000 0.080488 0.009486 -0.002587 0.900000 0.009832
1.076667 0.080488 0.011683 -0.001452 0.900000 0.011772
1.203333 0.080488 0.019226 -0.002744 0.900000 0.019421
1.330000 0.080488 0.019410 -0.002526 0.900000 0.019574
1.456667 0.080488 0.012597 -0.003737 0.900000 0.013139
1.583333 0.080488 0.019207 -0.002807 0.900000 0.019411
1.710000 0.080488 0.024002 -0.000870 0.900000 0.024017
1.836667 0.080488 0.025189 -0.002281 0.900000 0.025292
1.963333 0.080488 0.028883 -0.000875 0.900000 0.028897
2.090000 0.080488 0.029827 0.000109 0.900000 0.029827
2.216667 0.080488 0.029059 -0.000275 0.900000 0.029060
2.343333 0.080488 0.025802 -0.003322 0.900000 0.026015
2.470000 0.080488 0.026030 -0.000979 0.900000 0.026049
2.596667 0.080488 0.028569 -0.001195 0.900000 0.028594
2.723333 0.080488 0.028756 -0.000491 0.900000 0.028760
2.850000 0.080488 0.028343 0.001671 0.900000 0.028392
2.976667 0.080488 0.025266 -0.001072 0.900000 0.025288
3.103333 0.080488 0.022721 0.002539 0.900000 0.022863
3.230000 0.080488 0.023432 -0.003847 0.900000 0.023746
3.356667 0.080488 0.024008 -0.001208 0.900000 0.024038
3.483333 0.080488 0.019267 0.004960 0.900000 0.019896
3.610000 0.080488 0.008039 0.008527 0.900000 0.011719
3.736667 0.080488 0.000000 0.000000 0.000000 0.000000
0.063333 0.095122 0.000000 0.000000 0.000000 0.000000
0.190000 0.095122 -0.000180 -0.001972 0.900000 0.001980
0.316667 0.095122 -0.000251 -0.000927 0.900000 0.000961
0.443333 0.095122 0.000343 -0.002313 0.900000 0.002339
0.570000 0.095122 0.001583 0.002855 0.900000 0.003265
0.696667 0.095122 0.003243 0.005835 0.900000 0.006676
0.823333 0.095122 0.005345 -0.005139 0.900000 0.007415
0.950000 0.095122 0.010572 -0.003046 0.900000 0.011003
1.076667 0.095122 0.013330 -0.001145 0.900000 0.013379
1.203333 0.095122 0.019367 -0.003376 0.900000 0.019659
1.330000 0.095122 0.019774 -0.002466 0.900000 0.019927
1.456667 0.095122 0.013457 -0.004083 0.900000 0.014062
1.583333 0.095122 0.019415 -0.002671 0.900000 0.019598
1.710000 0.095122 0.024459 -0.001589 0.900000 0.024510
1.836667 0.095122 0.024848 -0.002784 0.900000 0.025004
1.963333 0.095122 0.027579 -0.000949 0.900000 0.027595
2.090000 0.095122 0.028611 0.000145 0.900000 0.028611
2.216667 0.095122 0.027738 -0.000271 0.900000 0.027740
2.343333 0.095122 0.024683 -0.002927 0.900000 0.024856
2.470000 0.095122 0.026181 -0.001445 0.900000 0.026221
2.596667 0.095122 0.028283 -0.001327 0.900000 0.028314
2.723333 0.095122 0.026789 -0.000243 0.900000 0.026790
2.850000 0.095122 0.027362 0.001551 0.900000 0.027406
2.976667 0.095122 0.025015 -0.001435 0.900000 0.025056
3.103333 0.095122 0.022665 0.002594 0.900000 0.022813
3.230000 0.095122 0.024160 -0.003985 0.900000 0.024487
3.356667 0.095122 0.023491 -0.000821 0.900000 0.023505
3.483333 0.095122 0.018280 0.005636 0.900000 0.019129
3.610000 0.095122 0.007866 0.010210 0.900000 0.012888
3.736667 0.095122 0.000000 0.000000 0.000000 0.000000
0.063333 0.109756 0.000000 0.000000 0.000000 0.000000
0.190000 0.109756 -0.000643 -0.001993 0.900000 0.002094
0.316667 0.109756 -0.001288 -0.001034 0.900000 0.001652
0.443333 0.109756 -0.000861 -0.002392 0.900000 0.002543
0.570000 0.109756 0.000796 0.002813 0.900000 0.002923
0.696667 0.109756 0.004129 0.006252 0.900000 0.007492
0.823333 0.109756 0.006540 -0.005329 0.900000 0.008436
0.950000 0.109756 0.011742 -0.003655 0.900000 0.012297
1.076667 0.109756 0.014382 -0.000555 0.900000 0.014393
1.203333 0.109756 0.018762 -0.003766 0.900000 0.019137
1.330000 0.109756 0.020011 -0.002637 0.900000 0.020184
1.456667 0.109756 0.015450 -0.003840 0.900000 0.015920
1.583333 0.109756 0.020730 -0.002441 0.900000 0.020873
1.710000 0.109756 0.024896 -0.002155 0.900000 0.024989
1.836667 0.109756 0.025083 -0.003130 0.900000 0.025278
1.963333 0.109756 0.027572 -0.001038 0.900000 0.027591
2.090000 0.109756 0.028694 0.000137 0.900000 0.028694
2.216667 0.109756 0.027787 -0.000272 0.900000 0.027789
2.343333 0.109756 0.025014 -0.002169 0.900000 0.025108
2.470000 0.109756 0.026761 -0.001966 0.900000 0.026833
2.596667 0.109756 0.028316 -0.001269 0.900000 0.028344
2.723333 0.109756 0.026698 0.000019 0.900000 0.026698
2.850000 0.109756 0.027588 0.001268 0.900000 0.027617
2.976667 0.109756 0.024580 -0.001602 0.900000 0.024632
3.103333 0.109756 0.022520 0.002401 0.900000 0.022648
3.230000 0.109756 0.024323 -0.003977 0.900000 0.024646
3.356667 0.109756 0.022989 -0.000354 0.900000 0.022992
3.483333 0.109756 0.017829 0.006236 0.900000 0.018888
3.610000 0.109756 0.007651 0.011827 0.900000 0.014086
3.736667 0.109756 0.000000 0.000000 0.000000 0.000000
0.063333 0.124390 0.000000 0.000000 0.000000 0.000000
0.190000 0.124390 -0.001116 -0.001914 0.900000 0.002216
0.316667 0.124390 -0.002283 -0.001123 0.900000 0.002545
0.443333 0.124390 -0.001883 -0.002441 0.900000 0.003083
0.570000 0.124390 0.000063 0.002718 0.900000 0.002719
0.696667 0.124390 0.004899 0.006358 0.900000 0.008026
0.823333 0.124390 0.007952 -0.005291 0.900000 0.009551
0.950000 0.124390 0.012077 -0.004253 0.900000 0.012804
1.076667 0.124390 0.014602 0.000222 0.900000 0.014603
1.203333 0.124390 0.018526 -0.003952 0.900000 0.018943
1.330000 0.124390 0.019311 -0.002910 0.900000 0.019528
1.456667 0.124390 0.016358 -0.003783 0.900000 0.016789
1.583333 0.124390 0.021943 -0.002000 0.900000 0.022034
1.710000 0.124390 0.025212 -0.002298 0.900000 0.025316
1.836667 0.124390 0.025271 -0.003368 0.900000 0.025495
1.963333 0.124390 0.027577 -0.001162 0.900000 0.027601
2.090000 0.124390 0.028980 0.000076 0.900000 0.028980
2.216667 0.124390 0.028025 -0.000248 0.900000 0.028026
2.343333 0.124390 0.025288 -0.001584 0.900000 0.025338
2.470000 0.124390 0.027161 -0.002443 0.900000 0.027270
2.596667 0.124390 0.028231 -0.001128 0.900000 0.028254
2.723333 0.124390 0.026609 0.000207 0.900000 0.026610
2.850000 0.124390 0.027671 0.000998 0.900000 0.027689
2.976667 0.124390 0.024767 -0.001654 0.900000 0.024822
3.103333 0.124390 0.023209 0.002063 0.900000 0.023301
3.230000 0.124390 0.024169 -0.003709 0.899997 0.024452
3.356667 0.124390 0.022044 -0.000067 0.900000 0.022044
3.483333 0.124390 0.017390 0.006814 0.900000 0.018677
3.610000 0.124390 0.007490 0.013383 0.900000 0.015337
3.736667 0.124390 0.000000 0.000000 0.000000 0.000000
0.063333 0.139024 0.000000 0.000000 0.000000 0.000000
0.190000 0.139024 -0.001454 -0.001753 0.900000 0.002277
0.316667 0.139024 -0.002867 -0.001218 0.900000 0.003115
0.443333 0.139024 -0.002250 -0.002485 0.900000 0.003352
0.570000 0.139024 0.000456 0.002539 0.900000 0.002580
0.696667 0.139024 0.006489 0.006217 0.900000 0.008987
0.823333 0.139024 0.010231 -0.005157 0.900000 0.011457
0.950000 0.139024 0.013285 -0.004603 0.900000 0.014060
1.076667 0.139024 0.014861 0.000507 0.900000 0.014869
1.203333 0.139024 0.018550 -0.003969 0.900000 0.018969
1.330000 0.139024 0.018786 -0.003113 0.900000 0.019042
1.456667 0.139024 0.016158 -0.003897 0.900000 0.016621
1.583333 0.139024 0.022114 -0.001677 0.900000 0.022178
1.710000 0.139024 0.025453 -0.002284 0.900000 0.025556
1.836667 0.139024 0.025487 -0.003558 0.900000 0.025734
1.963333 0.139024 0.027600 -0.001318 0.900000 0.027632
2.090000 0.139024 0.029267 -0.000068 0.900000 0.029268
2.216667 0.139024 0.028147 -0.000151 0.900000 0.028148
2.343333 0.139024 0.025384 -0.001160 0.900000 0.025410
2.470000 0.139024 0.026281 -0.002733 0.900000 0.026423
2.596667 0.139024 0.026868 -0.001055 0.900000 0.026889
2.723333 0.139024 0.026450 0.000323 0.900000 0.026452
2.850000 0.139024 0.027084 0.000816 0.900000 0.027097
2.976667 0.139024 0.024387 -0.001692 0.899999 0.024446
3.103333 0.139024 0.024029 0.001680 0.899994 0.024088
3.230000 0.139024 0.024082 -0.003134 0.899942 0.024285
3.356667 0.139024 0.021043 0.000170 0.899990 0.021043
3.483333 0.139024 0.016810 0.007361 0.900000 0.018351
3.610000 0.139024 0.007250 0.014893 0.900000 0.016564
3.736667 0.139024 0.000000 0.000000 0.000000 0.000000
0.063333 0.153659 0.000000 0.000000 0.000000 0.000000
0.190000 0.153659 -0.001764 -0.001528 0.900000 0.002334
0.316667 0.153659 -0.003388 -0.001334 0.900000 0.003642
0.443333 0.153659 -0.002531 -0.002543 0.900000 0.003588
0.570000 0.153659 0.001042 0.002213 0.900000 0.002446
0.696667 0.153659 0.008052 0.005930 0.900000 0.009999
0.823333 0.153659 0.012178 -0.005035 0.900000 0.013178
0.950000 0.153659 0.014372 -0.004657 0.900000 0.015108
1.076667 0.153659 0.014796 -0.000089 0.900000 0.014796
1.203333 0.153659 0.019288 -0.004034 0.900000 0.019706
1.330000 0.153659 0.019422 -0.003092 0.900000 0.019667
1.456667 0.153659 0.016110 -0.004077 0.900000 0.016618
1.583333 0.153659 0.022349 -0.001774 0.900000 0.022419
1.710000 0.153659 0.025749 -0.002318 0.900000 0.025853
1.836667 0.153659 0.025706 -0.003731 0.900000 0.025975
1.963333 0.153659 0.027463 -0.001493 0.900000 0.027504
2.090000 0.153659 0.029171 -0.000280 0.900000 0.029172
2.216667 0.153659 0.027920 0.000016 0.900000 0.027920
2.343333 0.153659 0.025298 -0.000886 0.900000 0.025313
2.470000 0.153659 0.025260 -0.002715 0.899997 0.025406
2.596667 0.153659 0.025435 -0.001184 0.899997 0.025462
2.723333 0.153659 0.026145 0.000376 0.900000 0.026148
2.850000 0.153659 0.026518 0.000765 0.900000 0.026529
2.976667 0.153659 0.024066 -0.001713 0.899947 0.024127
3.103333 0.153659 0.024893 0.001184 0.899835 0.024921
3.230000 0.153659 0.023800 -0.002205 0.899027 0.023902
3.356667 0.153659 0.020169 0.000481 0.899755 0.020175
3.483333 0.153659 0.018082 0.007744 0.899968 0.019671
3.610000 0.153659 0.008478 0.016501 0.899998 0.018551
3.736667 0.153659 0.000000 0.000000 0.000000 0.000000
0.063333 0.168293 0.000000 0.000000 0.000000 0.000000
0.190000 0.168293 -0.002200 -0.001222 0.900000 0.002517
0.316667 0.168293 -0.004274 -0.001461 0.900000 0.004517
0.443333 0.168293 -0.003354 -0.002611 0.900000 0.004250
0.570000 0.168293 0.000598 0.001776 0.900000 0.001874
0.696667 0.168293 0.008588 0.005491 0.900000 0.010193
0.823333 0.168293 0.013001 -0.004872 0.900000 0.013884
0.950000 0.168293 0.014600 -0.004563 0.900000 0.015297
1.076667 0.168293 0.014856 -0.000946 0.900000 0.014886
1.203333 0.168293 0.020018 -0.004269 0.900000 0.020468
1.330000 0.168293 0.020016 -0.002773 0.900000 0.020207
1.456667 0.168293 0.016224 -0.004345 0.899999 0.016795
1.583333 0.168293 0.022592 -0.002041 0.900000 0.022684
1.710000 0.168293 0.026060 -0.002401 0.900000 0.026170
1.836667 0.168293 0.025368 -0.003800 0.899998 0.025651
1.963333 0.168293 0.026125 -0.001678 0.899999 0.026179
2.090000 0.168293 0.027073 -0.000446 0.900000 0.027077
2.216667 0.168293 0.025718 0.000140 0.900000 0.025718
2.343333 0.168293 0.024218 -0.000757 0.900000 0.024230
2.470000 0.168293 0.025126 -0.002611 0.899894 0.025261
2.596667 0.168293 0.024741 -0.001289 0.899866 0.024774
2.723333 0.168293 0.024650 0.000380 0.899995 0.024653
2.850000 0.168293 0.025910 0.000690 0.900000 0.025919
2.976667 0.168293 0.023952 -0.001691 0.898487 0.024012
3.103333 0.168293 0.024513 0.000589 0.896417 0.024520
3.230000 0.168293 0.022305 -0.001040 0.885395 0.022329
3.356667 0.168293 0.013514 0.001523 0.895087 0.013599
3.483333 0.168293 0.004321 0.006612 0.844971 0.007899
3.610000 0.168293 0.001215 0.012365 0.812120 0.012425
3.736667 0.168293 0.000000 0.000000 0.000000 0.000000
0.063333 0.182927 0.000000 0.000000 0.000000 0.000000
0.190000 0.182927 -0.002656 -0.000817 0.900000 0.002779
0.316667 0.182927 -0.005197 -0.001591 0.900000 0.005435
0.443333 0.182927 -0.004242 -0.002682 0.899998 0.005018
0.570000 0.182927 -0.000077 0.001287 0.900000 0.001290
0.696667 0.182927 0.008818 0.004856 0.900000 0.010066
0.823333 0.182927 0.013611 -0.004613 0.899997 0.014371
0.950000 0.182927 0.014686 -0.004435 0.899998 0.015341
1.076667 0.182927 0.014983 -0.001625 0.900000 0.015071
1.203333 0.182927 0.019731 -0.004493 0.899997 0.020236
1.330000 0.182927 0.021592 -0.002570 0.899995 0.021745
1.456667 0.182927 0.018506 -0.004475 0.899978 0.019039
1.583333 0.182927 0.022878 -0.002255 0.899994 0.022989
1.710000 0.182927 0.026238 -0.002519 0.899990 0.026359
1.836667 0.182927 0.024888 -0.003700 0.899943 0.025162
1.963333 0.182927 0.024801 -0.001877 0.899943 0.024872
2.090000 0.182927 0.025093 -0.000482 0.899996 0.025098
2.216667 0.182927 0.023680 0.000126 0.899997 0.023680
2.343333 0.182927 0.023154 -0.000762 0.899987 0.023167
2.470000 0.182927 0.024224 -0.002552 0.897543 0.024358
2.596667 0.182927 0.023242 -0.001194 0.895399 0.023273
2.723333 0.182927 0.023404 0.000327 0.899712 0.023407
2.850000 0.182927 0.023151 0.000746 0.899802 0.023163
2.976667 0.182927 0.011916 -0.000635 0.875331 0.011933
3.103333 0.182927 0.003770 0.000173 0.802394 0.003774
3.230000 0.182927 0.001068 0.000010 0.711201 0.001068
3.356667 0.182927 -0.000730 0.000412 0.636165 0.000838
3.483333 0.182927 -0.002225 0.001514 0.653700 0.002691
3.610000 0.182927 -0.001948 0.005144 0.691607 0.005500
3.736667 0.182927 0.000000 0.000000 0.000000 0.000000
0.063333 0.197561 0.000000 0.000000 0.000000 0.000000
0.190000 0.197561 -0.003172 -0.000302 0.900000 0.003186
0.316667 0.197561 -0.006169 -0.001732 0.899976 0.006408
0.443333 0.197561 -0.005103 -0.002755 0.899949 0.005799
0.570000 0.197561 -0.000819 0.000768 0.900000 0.001123
0.696667 0.197561 0.008977 0.004004 0.900000 0.009830
0.823333 0.197561 0.014275 -0.004273 0.899932 0.014901
0.950000 0.197561 0.014700 -0.004256 0.899948 0.015304
1.076667 0.197561 0.015107 -0.002225 0.899982 0.015270
1.203333 0.197561 0.019571 -0.004559 0.899923 0.020095
1.330000 0.197561 0.023152 -0.002839 0.899879 0.023326
1.456667 0.197561 0.020627 -0.004203 0.899538 0.021051
1.583333 0.197561 0.023077 -0.002431 0.899753 0.023204
1.710000 0.197561 0.025945 -0.002602 0.899557 0.026075
1.836667 0.197561 0.024135 -0.003509 0.898752 0.024389
1.963333 0.197561 0.024109 -0.002112 0.897817 0.024202
2.090000 0.197561 0.024821 -0.000479 0.899341 0.024826
2.216667 0.197561 0.023546 0.000036 0.899505 0.023546
2.343333 0.197561 0.020400 -0.000511 0.898749 0.020406
2.470000 0.197561 0.012341 -0.001571 0.865985 0.012441
2.596667 0.197561 0.004588 -0.000696 0.800500 0.004640
2.723333 0.197561 0.002059 0.000152 0.737826 0.002065
2.850000 0.197561 0.000376 0.000228 0.661115 0.000440
2.976667 0.197561 -0.000071 0.000010 0.602248 0.000071
3.103333 0.197561 -0.000273 0.000001 0.605082 0.000273
3.230000 0.197561 -0.000020 0.000001 0.600384 0.000020
3.356667 0.197561 -0.000148 0.000043 0.602922 0.000154
3.483333 0.197561 -0.000301 0.000196 0.606929 0.000359
3.610000 0.197561 -0.000484 0.001271 0.624762 0.001360
3.736667 0.197561 0.000000 0.000000 0.000000 0.000000
0.063333 0.212195 0.000000 0.000000 0.000000 0.000000
0.190000 0.212195 -0.003726 0.000334 0.899987 0.003741
0.316667 0.212195 -0.007089 -0.001905 0.899227 0.007340
0.443333 0.212195 -0.005771 -0.002828 0.898863 0.006426
0.570000 0.212195 -0.001539 0.000245 0.899997 0.001559
0.696667 0.212195 0.009175 0.002899 0.899999 0.009622
0.823333 0.212195 0.015142 -0.003853 0.898762 0.015624
0.950000 0.212195 0.014807 -0.003966 0.898839 0.015329
1.076667 0.212195 0.015254 -0.002791 0.899306 0.015507
1.203333 0.212195 0.019311 -0.004411 0.898360 0.019808
1.330000 0.212195 0.022081 -0.003272 0.897397 0.022322
1.456667 0.212195 0.019567 -0.003671 0.892034 0.019908
1.583333 0.212195 0.022063 -0.002493 0.892512 0.022203
1.710000 0.212195 0.023856 -0.002473 0.887167 0.023984
1.836667 0.212195 0.018714 -0.002692 0.879149 0.018907
1.963333 0.212195 0.011730 -0.001555 0.857694 0.011832
2.090000 0.212195 0.006265 -0.000260 0.797844 0.006271
2.216667 0.212195 0.002684 0.000018 0.728223 0.002684
2.343333 0.212195 0.000137 0.000024 0.653383 0.000139
2.470000 0.212195 -0.000014 -0.000001 0.600684 0.000014
2.596667 0.212195 -0.000010 -0.000001 0.600261 0.000010
2.723333 0.212195 -0.000211 0.000008 0.604859 0.000212
2.850000 0.212195 -0.000104 0.000010 0.602538 0.000104
2.976667 0.212195 -0.000003 0.000001 0.600071 0.000004
3.103333 0.212195 -0.000002 -0.000000 0.600032 0.000002
3.230000 0.212195 -0.000000 0.000000 0.600004 0.000000
3.356667 0.212195 -0.000007 0.000002 0.600148 0.000007
3.483333 0.212195 -0.000025 0.000017 0.600628 0.000030
3.610000 0.212195 -0.000078 0.000212 0.604521 0.000226
3.736667 0.212195 0.000000 0.000000 0.000000 0.000000
0.063333 0.226829 0.000000 0.000000 0.000000 0.000000
0.190000 0.226829 -0.004421 0.001112 0.898838 0.004558
0.316667 0.226829 -0.007452 -0.002078 0.885030 0.007737
0.443333 0.226829 -0.004890 -0.002834 0.883386 0.005652
0.570000 0.226829 -0.000657 -0.000230 0.899431 0.000696
0.696667 0.226829 0.009678 0.001609 0.899946 0.009811
0.823333 0.226829 0.014663 -0.003220 0.882434 0.015013
0.950000 0.226829 0.014512 -0.003353 0.880668 0.014894
1.076667 0.226829 0.014839 -0.002990 0.884365 0.015137
1.203333 0.226829 0.014942 -0.003387 0.875563 0.015321
1.330000 0.226829 0.011260 -0.002711 0.852897 0.011582
1.456667 0.226829 0.005371 -0.002260 0.802650 0.005827
1.583333 0.226829 0.004586 -0.001246 0.755416 0.004753
1.710000 0.226829 0.002908 -0.000761 0.694815 0.003006
1.836667 0.226829 0.000403 -0.000198 0.633995 0.000449
1.963333 0.226829 -0.000020 -0.000005 0.601795 0.000020
2.090000 0.226829 -0.000083 -0.000003 0.603453 0.000083
2.216667 0.226829 -0.000070 0.000001 0.602182 0.000070
2.343333 0.226829 -0.000037 0.000002 0.600938 0.000037
2.470000 0.226829 -0.000000 0.000000 0.600004 0.000000
2.596667 0.226829 -0.000000 -0.000000 0.600004 0.000000
2.723333 0.226829 -0.000006 0.000000 0.600144 0.000006
2.850000 0.226829 -0.000003 0.000000 0.600061 0.000003
2.976667 0.226829 -0.000000 0.000000 0.600002 0.000000
3.103333 0.226829 -0.000000 -0.000000 0.600000 0.000000
3.230000 0.226829 -0.000000 0.000000 0.600000 0.000000
3.356667 0.226829 -0.000000 0.000000 0.600006 0.000000
3.483333 0.226829 -0.000002 0.000001 0.600044 0.000002
3.610000 0.226829 -0.000009 0.000026 0.600591 0.000027
3.736667 0.226829 0.000000 0.000000 0.000000 0.000000
0.063333 0.241463 0.000000 0.000000 0.000000 0.000000
0.190000 0.241463 -0.001045 0.000858 0.746070 0.001353
0.316667 0.241463 -0.002439 -0.001258 0.762055 0.002745
0.443333 0.241463 -0.002179 -0.001778 0.772951 0.002813
0.570000 0.241463 -0.000678 -0.000324 0.792314 0.000752
0.696667 0.241463 0.003417 0.000370 0.790550 0.003437
0.823333 0.241463 0.003632 -0.001332 0.739724 0.003868
0.950000 0.241463 0.002541 -0.001061 0.702384 0.002753
1.076667 0.241463 0.001353 -0.000730 0.670604 0.001537
1.203333 0.241463 0.000408 -0.000209 0.624800 0.000458
1.330000 0.241463 0.000011 -0.000024 0.603083 0.000027
1.456667 0.241463 -0.000023 -0.000012 0.601242 0.000026
1.583333 0.241463 -0.000025 -0.000010 0.601662 0.000027
1.710000 0.241463 -0.000008 -0.000003 0.600489 0.000009
1.836667 0.241463 -0.000003 -0.000001 0.600141 0.000003
1.963333 0.241463 -0.000000 -0.000000 0.600018 0.000000
2.090000 0.241463 -0.000001 -0.000000 0.600061 0.000001
2.216667 0.241463 -0.000001 0.000000 0.600027 0.000001
2.343333 0.241463 -0.000001 0.000000 0.600020 0.000001
2.470000 0.241463 -0.000000 0.000000 0.600000 0.000000
2.596667 0.241463 -0.000000 -0.000000 0.600000 0.000000
2.723333 0.241463 -0.000000 0.000000 0.600004 0.000000
2.850000 0.241463 -0.000000 0.000000 0.600001 0.000000
2.976667 0.241463 -0.000000 0.000000 0.600000 0.000000
3.103333 0.241463 -0.000000 -0.000000 0.600000 0.000000
3.230000 0.241463 -0.000000 0.000000 0.600000 0.000000
3.356667 0.241463 -0.000000 0.000000 0.600000 0.000000
3.483333 0.241463 -0.000000 0.000000 0.600003 0.000000
3.610000 0.241463 -0.000001 0.000002 0.600058 0.000002
3.736667 0.241463 0.000000 0.000000 0.000000 0.000000
0.063333 0.256098 0.000000 0.000000 0.000000 0.000000
0.190000 0.256098 -0.000005 0.000079 0.612107 0.000079
0.316667 0.256098 -0.000000 -0.000000 0.600013 0.000000
0.443333 0.256098 -0.000000 -0.000000 0.600035 0.000001
0.570000 0.256098 -0.000026 -0.000005 0.602589 0.000026
0.696667 0.256098 -0.000003 0.000013 0.612373 0.000013
0.823333 0.256098 -0.000000 -0.000001 0.600105 0.000001
0.950000 0.256098 -0.000000 -0.000001 0.600092 0.000001
1.076667 0.256098 -0.000003 -0.000004 0.600391 0.000005
1.203333 0.256098 -0.000000 -0.000001 0.600116 0.000001
1.330000 0.256098 -0.000000 -0.000000 0.600015 0.000000
1.456667 0.256098 -0.000000 -0.000000 0.600009 0.000000
1.583333 0.256098 -0.000000 -0.000000 0.600022 0.000000
1.710000 0.256098 -0.000000 -0.000000 0.600002 0.000000
1.836667 0.256098 -0.000000 -0.000000 0.600000 0.000000
1.963333 0.256098 -0.000000 -0.000000 0.600000 0.000000
2.090000 0.256098 -0.000000 0.000000 0.600001 0.000000
2.216667 0.256098 -0.000000 0.000000 0.600000 0.000000
2.343333 0.256098 -0.000000 0.000000 0.600000 0.000000
2.470000 0.256098 -0.000000 0.000000 0.600000 0.000000
2.596667 0.256098 -0.000000 -0.000000 0.600000 0.000000
2.723333 0.256098 -0.000000 0.000000 0.600000 0.000000
2.850000 0.256098 -0.000000 0.000000 0.600000 0.000000
2.976667 0.256098 -0.000000 0.000000 0.600000 0.000000
3.103333 0.256098 -0.000000 -0.000000 0.600000 0.000000
3.230000 0.256098 -0.000000 0.000000 0.600000 0.000000
3.356667 0.256098 -0.000000 0.000000 0.600000 0.000000
3.483333 0.256098 -0.000000 0.000000 0.600000 0.000000
3.610000 0.256098 -0.000000 0.000000 0.600004 0.000000
3.736667 0.256098 0.000000 0.000000 0.000000 0.000000
0.063333 0.270732 0.000000 0.000000 0.000000 0.000000
0.190000 0.270732 -0.000001 0.000003 0.600512 0.000004
0.316667 0.270732 -0.000000 -0.000000 0.600000 0.000000
0.443333 0.270732 -0.000000 -0.000000 0.600000 0.000000
0.570000 0.270732 -0.000000 -0.000000 0.600021 0.000000