TITLE="(Vx,Vy)"
VARIABLES=X,Y,Vx,Vy,Vm,V
ZONE T="T-Dummy" I=30, J=41, F=POINT
0.063333 0.007317 0.000000 0.000000 0.000000 0.000000
0.190000 0.007317 0.000000 0.000000 0.000000 0.000000
0.316667 0.007317 0.000000 0.000000 0.000000 0.000000
0.443333 0.007317 0.000000 0.000000 0.000000 0.000000
0.570000 0.007317 0.000000 0.000000 0.000000 0.000000
0.696667 0.007317 0.000000 0.000000 0.000000 0.000000
0.823333 0.007317 0.000000 0.000000 0.000000 0.000000
0.950000 0.007317 0.000000 0.000000 0.000000 0.000000
1.076667 0.007317 0.000000 0.000000 0.000000 0.000000
1.203333 0.007317 0.000000 0.000000 0.000000 0.000000
1.330000 0.007317 0.000000 0.000000 0.000000 0.000000
1.456667 0.007317 0.000000 0.000000 0.000000 0.000000
1.583333 0.007317 0.000000 0.000000 0.000000 0.000000
1.710000 0.007317 0.000000 0.000000 0.000000 0.000000
1.836667 0.007317 0.000000 0.000000 0.000000 0.000000
1.963333 0.007317 0.000000 0.000000 0.000000 0.000000
2.090000 0.007317 0.000000 0.000000 0.000000 0.000000
2.216667 0.007317 0.000000 0.000000 0.000000 0.000000
2.343333 0.007317 0.000000 0.000000 0.000000 0.000000
2.470000 0.007317 0.000000 0.000000 0.000000 0.000000
2.596667 0.007317 0.000000 0.000000 0.000000 0.000000
2.723333 0.007317 0.000000 0.000000 0.000000 0.000000
2.850000 0.007317 0.000000 0.000000 0.000000 0.000000
2.976667 0.007317 0.000000 0.000000 0.000000 0.000000
3.103333 0.007317 0.000000 0.000000 0.000000 0.000000
3.230000 0.007317 0.000000 0.000000 0.000000 0.000000
3.356667 0.007317 0.000000 0.000000 0.000000 0.000000
3.483333 0.007317 0.000000 0.000000 0.000000 0.000000
3.610000 0.007317 0.000000 0.000000 0.000000 0.000000
3.736667 0.007317 0.000000 0.000000 0.000000 0.000000
0.063333 0.021951 0.000000 0.000000 0.000000 0.000000
0.190000 0.021951 0.000000 -0.000000 0.900000 0.000000
0.316667 0.021951 0.000000 0.000000 0.900000 0.000000
0.443333 0.021951 -0.000000 0.000000 0.900000 0.000000
0.570000 0.021951 -0.000000 0.000000 0.900000 0.000000
0.696667 0.021951 -0.000000 -0.000000 0.900000 0.000000
0.823333 0.021951 -0.000000 0.000000 0.900000 0.000000
0.950000 0.021951 -0.000000 -0.000000 0.900000 0.000000
1.076667 0.021951 0.000000 -0.000000 0.900000 0.000000
1.203333 0.021951 0.000000 0.000000 0.900000 0.000000
1.330000 0.021951 -0.000000 0.000000 0.900000 0.000000
1.456667 0.021951 -0.000000 -0.000000 0.900000 0.000000
1.583333 0.021951 -0.000000 0.000000 0.900000 0.000000
1.710000 0.021951 -0.000000 0.000000 0.900000 0.000000
1.836667 0.021951 -0.000000 -0.000000 0.900000 0.000000
1.963333 0.021951 -0.000000 -0.000000 0.900000 0.000000
2.090000 0.021951 -0.000000 -0.000000 0.900000 0.000000
2.216667 0.021951 -0.000000 -0.000000 0.900000 0.000000
2.343333 0.021951 -0.000000 0.000000 0.900000 0.000000
2.470000 0.021951 -0.000000 -0.000000 0.900000 0.000000
2.596667 0.021951 -0.000000 0.000000 0.900000 0.000000
2.723333 0.021951 -0.000000 0.000000 0.900000 0.000000
2.850000 0.021951 -0.000000 0.000000 0.900000 0.000000
2.976667 0.021951 -0.000000 0.000000 0.900000 0.000000
3.103333 0.021951 -0.000000 -0.000000 0.900000 0.000000
3.230000 0.021951 -0.000000 -0.000000 0.900000 0.000000
3.356667 0.021951 0.000000 -0.000000 0.900000 0.000000
3.483333 0.021951 0.000000 0.000000 0.900000 0.000000
3.610000 0.021951 -0.000000 -0.000000 0.900000 0.000000
3.736667 0.021951 0.000000 0.000000 0.000000 0.000000
0.063333 0.036585 0.000000 0.000000 0.000000 0.000000
0.190000 0.036585 0.000000 -0.000000 0.900000 0.000000
0.316667 0.036585 0.000000 0.000000 0.900000 0.000000
0.443333 0.036585 -0.000000 0.000000 0.900000 0.000000
0.570000 0.036585 -0.000000 0.000000 0.900000 0.000000
0.696667 0.036585 -0.000000 -0.000000 0.900000 0.000000
0.823333 0.036585 -0.000000 0.000000 0.900000 0.000000
0.950000 0.036585 -0.000000 -0.000000 0.900000 0.000000
1.076667 0.036585 -0.000000 -0.000000 0.900000 0.000000
1.203333 0.036585 -0.000000 0.000000 0.900000 0.000000
1.330000 0.036585 -0.000000 0.000000 0.900000 0.000000
1.456667 0.036585 -0.000000 -0.000000 0.900000 0.000000
1.583333 0.036585 -0.000000 0.000000 0.900000 0.000000
1.710000 0.036585 -0.000000 0.000000 0.900000 0.000000
1.836667 0.036585 -0.000000 -0.000000 0.900000 0.000000
1.963333 0.036585 -0.000000 -0.000000 0.900000 0.000000
2.090000 0.036585 -0.000000 -0.000000 0.900000 0.000000
2.216667 0.036585 -0.000000 -0.000000 0.900000 0.000000
2.343333 0.036585 -0.000000 0.000000 0.900000 0.000000
2.470000 0.036585 -0.000000 -0.000000 0.900000 0.000000
2.596667 0.036585 0.000000 0.000000 0.900000 0.000000
2.723333 0.036585 0.000000 0.000000 0.900000 0.000000
2.850000 0.036585 -0.000000 0.000000 0.900000 0.000000
2.976667 0.036585 -0.000000 0.000000 0.900000 0.000000
3.103333 0.036585 -0.000000 -0.000000 0.900000 0.000000
3.230000 0.036585 -0.000000 -0.000000 0.900000 0.000000
3.356667 0.036585 0.000000 -0.000000 0.900000 0.000000
3.483333 0.036585 0.000000 0.000000 0.900000 0.000000
3.610000 0.036585 -0.000000 -0.000000 0.900000 0.000000
3.736667 0.036585 0.000000 0.000000 0.000000 0.000000
0.063333 0.051220 0.000000 0.000000 0.000000 0.000000
0.190000 0.051220 0.000000 -0.000000 0.900000 0.000000
0.316667 0.051220 -0.000000 0.000000 0.900000 0.000000
0.443333 0.051220 -0.000000 0.000000 0.900000 0.000000
0.570000 0.051220 -0.000000 0.000000 0.900000 0.000000
0.696667 0.051220 -0.000000 -0.000000 0.900000 0.000000
0.823333 0.051220 -0.000000 -0.000000 0.900000 0.000000
0.950000 0.051220 -0.000000 -0.000000 0.900000 0.000000
1.076667 0.051220 -0.000000 -0.000000 0.900000 0.000000
1.203333 0.051220 -0.000000 -0.000000 0.900000 0.000000
1.330000 0.051220 -0.000000 0.000000 0.900000 0.000000
1.456667 0.051220 -0.000000 -0.000000 0.900000 0.000000
1.583333 0.051220 -0.000000 0.000000 0.900000 0.000000
1.710000 0.051220 -0.000000 -0.000000 0.900000 0.000000
1.836667 0.051220 -0.000000 0.000000 0.900000 0.000000
1.963333 0.051220 -0.000000 -0.000000 0.900000 0.000000
2.090000 0.051220 -0.000000 -0.000000 0.900000 0.000000
2.216667 0.051220 -0.000000 -0.000000 0.900000 0.000000
2.343333 0.051220 -0.000000 0.000000 0.900000 0.000000
2.470000 0.051220 0.000000 -0.000000 0.900000 0.000000
2.596667 0.051220 0.000000 0.000000 0.900000 0.000000
2.723333 0.051220 0.000000 0.000000 0.900000 0.000000
2.850000 0.051220 -0.000000 0.000000 0.900000 0.000000
2.976667 0.051220 -0.000000 -0.000000 0.900000 0.000000
3.103333 0.051220 -0.000000 -0.000000 0.900000 0.000000
3.230000 0.051220 -0.000000 -0.000000 0.900000 0.000000
3.356667 0.051220 -0.000000 -0.000000 0.900000 0.000000
3.483333 0.051220 0.000000 0.000000 0.900000 0.000000
3.610000 0.051220 -0.000000 -0.000000 0.900000 0.000000
3.736667 0.051220 0.000000 0.000000 0.000000 0.000000
0.063333 0.065854 0.000000 0.000000 0.000000 0.000000
0.190000 0.065854 0.000000 -0.000000 0.900000 0.000000
0.316667 0.065854 -0.000000 0.000000 0.900000 0.000000
0.443333 0.065854 -0.000000 0.000000 0.900000 0.000000
0.570000 0.065854 -0.000000 0.000000 0.900000 0.000000
0.696667 0.065854 -0.000000 0.000000 0.900000 0.000000
0.823333 0.065854 -0.000000 -0.000000 0.900000 0.000000
0.950000 0.065854 -0.000000 -0.000000 0.900000 0.000000
1.076667 0.065854 -0.000000 -0.000000 0.900000 0.000000
1.203333 0.065854 -0.000000 -0.000000 0.900000 0.000000
1.330000 0.065854 -0.000000 0.000000 0.900000 0.000000
1.456667 0.065854 -0.000000 -0.000000 0.900000 0.000000
1.583333 0.065854 -0.000000 0.000000 0.900000 0.000000
1.710000 0.065854 -0.000000 -0.000000 0.900000 0.000000
1.836667 0.065854 -0.000000 0.000000 0.900000 0.000000
1.963333 0.065854 -0.000000 -0.000000 0.900000 0.000000
2.090000 0.065854 -0.000000 -0.000000 0.900000 0.000000
2.216667 0.065854 -0.000000 -0.000000 0.900000 0.000000
2.343333 0.065854 0.000000 0.000000 0.900000 0.000000
2.470000 0.065854 0.000000 -0.000000 0.900000 0.000000
2.596667 0.065854 0.000000 0.000000 0.900000 0.000000
2.723333 0.065854 0.000000 0.000000 0.900000 0.000000
2.850000 0.065854 -0.000000 0.000000 0.900000 0.000000
2.976667 0.065854 -0.000000 -0.000000 0.900000 0.000000
3.103333 0.065854 -0.000000 -0.000000 0.900000 0.000000
3.230000 0.065854 -0.000000 -0.000000 0.900000 0.000000
3.356667 0.065854 -0.000000 -0.000000 0.900000 0.000000
3.483333 0.065854 0.000000 0.000000 0.900000 0.000000
3.610000 0.065854 -0.000000 -0.000000 0.900000 0.000000
3.736667 0.065854 0.000000 0.000000 0.000000 0.000000
0.063333 0.080488 0.000000 0.000000 0.000000 0.000000
0.190000 0.080488 -0.000000 -0.000000 0.900000 0.000000
0.316667 0.080488 -0.000000 0.000000 0.900000 0.000000
0.443333 0.080488 -0.000000 0.000000 0.900000 0.000000
0.570000 0.080488 -0.000000 0.000000 0.900000 0.000000
0.696667 0.080488 -0.000000 0.000000 0.900000 0.000000
0.823333 0.080488 -0.000000 -0.000000 0.900000 0.000000
0.950000 0.080488 -0.000000 -0.000000 0.900000 0.000000
1.076667 0.080488 -0.000000 -0.000000 0.900000 0.000000
1.203333 0.080488 -0.000000 -0.000000 0.900000 0.000000
1.330000 0.080488 -0.000000 0.000000 0.900000 0.000000
1.456667 0.080488 -0.000000 -0.000000 0.900000 0.000000
1.583333 0.080488 -0.000000 0.000000 0.900000 0.000000
1.710000 0.080488 -0.000000 -0.000000 0.900000 0.000000
1.836667 0.080488 -0.000000 0.000000 0.900000 0.000000
1.963333 0.080488 -0.000000 -0.000000 0.900000 0.000000
2.090000 0.080488 -0.000000 -0.000000 0.900000 0.000000
2.216667 0.080488 -0.000000 -0.000000 0.900000 0.000000
2.343333 0.080488 -0.000000 0.000000 0.900000 0.000000
2.470000 0.080488 -0.000000 0.000000 0.900000 0.000000
2.596667 0.080488 0.000000 -0.000000 0.900000 0.000000
2.723333 0.080488 0.000000 0.000000 0.900000 0.000000
2.850000 0.080488 -0.000000 0.000000 0.900000 0.000000
2.976667 0.080488 -0.000000 -0.000000 0.900000 0.000000
3.103333 0.080488 -0.000000 -0.000000 0.900000 0.000000
3.230000 0.080488 -0.000000 0.000000 0.900000 0.000000
3.356667 0.080488 -0.000000 -0.000000 0.900000 0.000000
3.483333 0.080488 -0.000000 0.000000 0.900000 0.000000
3.610000 0.080488 -0.000000 -0.000000 0.900000 0.000000
3.736667 0.080488 0.000000 0.000000 0.000000 0.000000
0.063333 0.095122 0.000000 0.000000 0.000000 0.000000
0.190000 0.095122 -0.000000 -0.000000 0.900000 0.000000
0.316667 0.095122 -0.000000 0.000000 0.900000 0.000000
0.443333 0.095122 -0.000000 0.000000 0.900000 0.000000
0.570000 0.095122 -0.000000 0.000000 0.900000 0.000000
0.696667 0.095122 -0.000000 0.000000 0.900000 0.000000
0.823333 0.095122 -0.000000 -0.000000 0.900000 0.000000
0.950000 0.095122 -0.000000 -0.000000 0.900000 0.000000
1.076667 0.095122 -0.000000 -0.000000 0.900000 0.000000
1.203333 0.095122 -0.000000 -0.000000 0.900000 0.000000
1.330000 0.095122 -0.000000 -0.000000 0.900000 0.000000
1.456667 0.095122 -0.000000 -0.000000 0.900000 0.000000
1.583333 0.095122 -0.000000 0.000000 0.900000 0.000000
1.710000 0.095122 -0.000000 -0.000000 0.900000 0.000000
1.836667 0.095122 -0.000000 0.000000 0.900000 0.000000
1.963333 0.095122 -0.000000 -0.000000 0.900000 0.000000
2.090000 0.095122 -0.000000 -0.000000 0.900000 0.000000
2.216667 0.095122 -0.000000 -0.000000 0.900000 0.000000
2.343333 0.095122 -0.000000 -0.000000 0.900000 0.000000
2.470000 0.095122 -0.000000 0.000000 0.900000 0.000000
2.596667 0.095122 0.000000 -0.000000 0.900000 0.000000
2.723333 0.095122 0.000000 -0.000000 0.900000 0.000000
2.850000 0.095122 -0.000000 0.000000 0.900000 0.000000
2.976667 0.095122 -0.000000 -0.000000 0.900000 0.000000
3.103333 0.095122 -0.000000 -0.000000 0.900000 0.000000
3.230000 0.095122 -0.000000 0.000000 0.900000 0.000000
3.356667 0.095122 -0.000000 -0.000000 0.900000 0.000000
3.483333 0.095122 -0.000000 0.000000 0.900000 0.000000
3.610000 0.095122 -0.000000 -0.000000 0.900000 0.000000
3.736667 0.095122 0.000000 0.000000 0.000000 0.000000
0.063333 0.109756 0.000000 0.000000 0.000000 0.000000
0.190000 0.109756 -0.000000 -0.000000 0.900000 0.000000
0.316667 0.109756 -0.000000 0.000000 0.900000 0.000000
0.443333 0.109756 -0.000000 0.000000 0.900000 0.000000
0.570000 0.109756 -0.000000 0.000000 0.900000 0.000000
0.696667 0.109756 -0.000000 0.000000 0.900000 0.000000
0.823333 0.109756 -0.000000 -0.000000 0.900000 0.000000
0.950000 0.109756 -0.000000 -0.000000 0.900000 0.000000
1.076667 0.109756 -0.000000 -0.000000 0.900000 0.000000
1.203333 0.109756 -0.000000 -0.000000 0.900000 0.000000
1.330000 0.109756 -0.000000 -0.000000 0.900000 0.000000
1.456667 0.109756 -0.000000 -0.000000 0.900000 0.000000
1.583333 0.109756 -0.000000 -0.000000 0.900000 0.000000
1.710000 0.109756 -0.000000 -0.000000 0.900000 0.000000
1.836667 0.109756 -0.000000 0.000000 0.900000 0.000000
1.963333 0.109756 -0.000000 -0.000000 0.900000 0.000000
2.090000 0.109756 -0.000000 -0.000000 0.900000 0.000000
2.216667 0.109756 -0.000000 -0.000000 0.900000 0.000000
2.343333 0.109756 -0.000000 -0.000000 0.900000 0.000000
2.470000 0.109756 -0.000000 0.000000 0.900000 0.000000
2.596667 0.109756 0.000000 -0.000000 0.900000 0.000000
2.723333 0.109756 0.000000 -0.000000 0.900000 0.000000
2.850000 0.109756 -0.000000 0.000000 0.900000 0.000000
2.976667 0.109756 -0.000000 -0.000000 0.900000 0.000000
3.103333 0.109756 -0.000000 -0.000000 0.900000 0.000000
3.230000 0.109756 -0.000000 0.000000 0.900000 0.000000
3.356667 0.109756 -0.000000 -0.000000 0.900000 0.000000
3.483333 0.109756 -0.000000 0.000000 0.900000 0.000000
3.610000 0.109756 -0.000000 -0.000000 0.900000 0.000000
3.736667 0.109756 0.000000 0.000000 0.000000 0.000000
0.063333 0.124390 0.000000 0.000000 0.000000 0.000000
0.190000 0.124390 -0.000000 -0.000000 0.900000 0.000000
0.316667 0.124390 -0.000000 0.000000 0.900000 0.000000
0.443333 0.124390 -0.000000 0.000000 0.900000 0.000000
0.570000 0.124390 -0.000000 0.000000 0.900000 0.000000
0.696667 0.124390 -0.000000 0.000000 0.900000 0.000000
0.823333 0.124390 -0.000000 -0.000000 0.900000 0.000000
0.950000 0.124390 -0.000000 -0.000000 0.900000 0.000000
1.076667 0.124390 -0.000000 -0.000000 0.900000 0.000000
1.203333 0.124390 -0.000000 -0.000000 0.900000 0.000000
1.330000 0.124390 -0.000000 -0.000000 0.899999 0.000000
1.456667 0.124390 -0.000000 -0.000000 0.900000 0.000000
1.583333 0.124390 -0.000000 -0.000000 0.900000 0.000000
1.710000 0.124390 -0.000000 -0.000000 0.900000 0.000000
1.836667 0.124390 -0.000000 0.000000 0.900000 0.000000
1.963333 0.124390 -0.000000 -0.000000 0.900000 0.000000
2.090000 0.124390 -0.000000 -0.000000 0.900000 0.000000
2.216667 0.124390 -0.000000 -0.000000 0.900000 0.000000
2.343333 0.124390 -0.000000 -0.000000 0.900000 0.000000
2.470000 0.124390 -0.000000 0.000000 0.900000 0.000000
2.596667 0.124390 0.000000 -0.000000 0.900000 0.000000
2.723333 0.124390 -0.000000 -0.000000 0.900000 0.000000
2.850000 0.124390 -0.000000 0.000000 0.900000 0.000000
2.976667 0.124390 -0.000000 -0.000000 0.900000 0.000000
3.103333 0.124390 -0.000000 -0.000000 0.900000 0.000000
3.230000 0.124390 -0.000000 0.000000 0.900000 0.000000
3.356667 0.124390 -0.000000 -0.000000 0.900000 0.000000
3.483333 0.124390 -0.000000 0.000000 0.900000 0.000000
3.610000 0.124390 -0.000000 -0.000000 0.900000 0.000000
3.736667 0.124390 0.000000 0.000000 0.000000 0.000000
0.063333 0.139024 0.000000 0.000000 0.000000 0.000000
0.190000 0.139024 -0.000000 0.000000 0.900000 0.000000
0.316667 0.139024 -0.000000 0.000000 0.900000 0.000000
0.443333 0.139024 -0.000000 0.000000 0.900000 0.000000
0.570000 0.139024 -0.000000 0.000000 0.900000 0.000000
0.696667 0.139024 -0.000000 0.000000 0.900000 0.000000
0.823333 0.139024 -0.000000 -0.000000 0.900000 0.000000
0.950000 0.139024 -0.000000 -0.000000 0.900000 0.000000
1.076667 0.139024 -0.000000 -0.000000 0.899999 0.000000
1.203333 0.139024 -0.000000 -0.000000 0.899994 0.000000
1.330000 0.139024 -0.000000 -0.000000 0.899990 0.000000
1.456667 0.139024 -0.000000 -0.000000 0.899999 0.000000
1.583333 0.139024 -0.000000 -0.000000 0.900000 0.000000
1.710000 0.139024 -0.000000 -0.000000 0.900000 0.000000
1.836667 0.139024 -0.000000 0.000000 0.900000 0.000000
1.963333 0.139024 -0.000000 -0.000000 0.900000 0.000000
2.090000 0.139024 -0.000000 -0.000000 0.900000 0.000000
2.216667 0.139024 -0.000000 -0.000000 0.900000 0.000000
2.343333 0.139024 -0.000000 -0.000000 0.900000 0.000000
2.470000 0.139024 -0.000000 0.000000 0.900000 0.000000
2.596667 0.139024 0.000000 -0.000000 0.900000 0.000000
2.723333 0.139024 0.000000 -0.000000 0.900000 0.000000
2.850000 0.139024 -0.000000 0.000000 0.900000 0.000000
2.976667 0.139024 -0.000000 -0.000000 0.900000 0.000000
3.103333 0.139024 -0.000000 -0.000000 0.899999 0.000000
3.230000 0.139024 -0.000000 0.000000 0.900000 0.000000
3.356667 0.139024 -0.000000 -0.000000 0.899997 0.000000
3.483333 0.139024 -0.000000 0.000000 0.900000 0.000000
3.610000 0.139024 -0.000000 -0.000000 0.900000 0.000000
3.736667 0.139024 0.000000 0.000000 0.000000 0.000000
0.063333 0.153659 0.000000 0.000000 0.000000 0.000000
0.190000 0.153659 -0.000000 0.000000 0.900000 0.000000
0.316667 0.153659 -0.000000 0.000000 0.900000 0.000000
0.443333 0.153659 -0.000000 0.000000 0.900000 0.000000
0.570000 0.153659 -0.000000 0.000000 0.900000 0.000000
0.696667 0.153659 -0.000000 0.000000 0.900000 0.000000
0.823333 0.153659 -0.000000 -0.000000 0.899995 0.000000
0.950000 0.153659 -0.000000 -0.000000 0.899999 0.000000
1.076667 0.153659 -0.000001 -0.000000 0.899974 0.000001
1.203333 0.153659 -0.000005 -0.000002 0.899885 0.000005
1.330000 0.153659 -0.000003 -0.000003 0.899876 0.000004
1.456667 0.153659 -0.000001 -0.000000 0.899977 0.000001
1.583333 0.153659 -0.000000 -0.000000 0.899995 0.000000
1.710000 0.153659 -0.000000 -0.000000 0.899997 0.000000
1.836667 0.153659 -0.000000 0.000000 0.900000 0.000000
1.963333 0.153659 -0.000000 -0.000000 0.900000 0.000000
2.090000 0.153659 -0.000000 -0.000000 0.900000 0.000000
2.216667 0.153659 -0.000000 -0.000000 0.900000 0.000000
2.343333 0.153659 -0.000000 0.000000 0.900000 0.000000
2.470000 0.153659 -0.000000 0.000000 0.900000 0.000000
2.596667 0.153659 0.000000 -0.000000 0.900000 0.000000
2.723333 0.153659 0.000000 0.000000 0.900000 0.000000
2.850000 0.153659 -0.000000 0.000000 0.900000 0.000000
2.976667 0.153659 -0.000000 -0.000000 0.899998 0.000000
3.103333 0.153659 -0.000000 -0.000000 0.899985 0.000000
3.230000 0.153659 -0.000000 0.000000 0.900000 0.000000
3.356667 0.153659 -0.000001 -0.000001 0.899968 0.000002
3.483333 0.153659 -0.000000 0.000000 0.900000 0.000000
3.610000 0.153659 -0.000000 -0.000000 0.900000 0.000000
3.736667 0.153659 0.000000 0.000000 0.000000 0.000000
0.063333 0.168293 0.000000 0.000000 0.000000 0.000000
0.190000 0.168293 -0.000000 0.000000 0.900000 0.000000
0.316667 0.168293 -0.000000 0.000000 0.900000 0.000000
0.443333 0.168293 -0.000000 0.000000 0.899991 0.000000
0.570000 0.168293 -0.000000 0.000000 0.899992 0.000000
0.696667 0.168293 -0.000000 0.000000 0.899992 0.000000
0.823333 0.168293 -0.000003 -0.000001 0.899812 0.000003
0.950000 0.168293 -0.000001 -0.000000 0.899958 0.000001
1.076667 0.168293 -0.000023 -0.000006 0.899527 0.000024
1.203333 0.168293 -0.000074 -0.000025 0.898233 0.000078
1.330000 0.168293 -0.000029 -0.000027 0.898691 0.000040
1.456667 0.168293 -0.000014 -0.000007 0.899493 0.000016
1.583333 0.168293 -0.000003 -0.000001 0.899888 0.000003
1.710000 0.168293 -0.000002 -0.000001 0.899902 0.000002
1.836667 0.168293 -0.000000 -0.000000 0.899999 0.000000
1.963333 0.168293 -0.000000 -0.000000 0.899999 0.000000
2.090000 0.168293 -0.000000 -0.000000 0.900000 0.000000
2.216667 0.168293 -0.000000 -0.000000 0.899999 0.000000
2.343333 0.168293 -0.000000 0.000000 0.900000 0.000000
2.470000 0.168293 -0.000000 0.000000 0.900000 0.000000
2.596667 0.168293 0.000000 -0.000000 0.899999 0.000000
2.723333 0.168293 0.000000 0.000000 0.900000 0.000000
2.850000 0.168293 -0.000000 0.000000 0.899999 0.000000
2.976667 0.168293 -0.000001 -0.000000 0.899951 0.000001
3.103333 0.168293 -0.000004 -0.000003 0.899832 0.000005
3.230000 0.168293 -0.000000 0.000000 0.899996 0.000000
3.356667 0.168293 -0.000016 -0.000010 0.899651 0.000019
3.483333 0.168293 -0.000000 0.000000 0.900000 0.000000
3.610000 0.168293 -0.000000 -0.000000 0.899988 0.000000
3.736667 0.168293 0.000000 0.000000 0.000000 0.000000
0.063333 0.182927 0.000000 0.000000 0.000000 0.000000
0.190000 0.182927 -0.000000 0.000000 0.899997 0.000000
0.316667 0.182927 -0.000001 0.000001 0.899935 0.000001
0.443333 0.182927 -0.000028 0.000005 0.898448 0.000028
0.570000 0.182927 -0.000009 0.000005 0.899246 0.000010
0.696667 0.182927 -0.000004 0.000005 0.898985 0.000007
0.823333 0.182927 -0.000073 -0.000021 0.894346 0.000076
0.950000 0.182927 -0.000056 -0.000008 0.897522 0.000056
1.076667 0.182927 -0.000305 -0.000077 0.893291 0.000314
1.203333 0.182927 -0.000789 -0.000289 0.881387 0.000841
1.330000 0.182927 -0.000264 -0.000234 0.887198 0.000353
1.456667 0.182927 -0.000215 -0.000117 0.892093 0.000245
1.583333 0.182927 -0.000083 -0.000023 0.897086 0.000086
1.710000 0.182927 -0.000063 -0.000020 0.897692 0.000066
1.836667 0.182927 -0.000007 -0.000001 0.899793 0.000007
1.963333 0.182927 -0.000002 -0.000000 0.899913 0.000002
2.090000 0.182927 -0.000000 -0.000000 0.899980 0.000000
2.216667 0.182927 -0.000001 -0.000000 0.899938 0.000001
2.343333 0.182927 -0.000000 -0.000000 0.899994 0.000000
2.470000 0.182927 -0.000000 0.000000 0.900000 0.000000
2.596667 0.182927 -0.000000 -0.000000 0.899967 0.000000
2.723333 0.182927 -0.000000 -0.000000 0.899940 0.000000
2.850000 0.182927 -0.000002 -0.000000 0.899912 0.000002
2.976667 0.182927 -0.000033 -0.000009 0.898829 0.000034
3.103333 0.182927 -0.000044 -0.000022 0.898351 0.000050
3.230000 0.182927 -0.000003 0.000000 0.899905 0.000003
3.356667 0.182927 -0.000162 -0.000073 0.896740 0.000177
3.483333 0.182927 -0.000000 0.000000 0.899996 0.000000
3.610000 0.182927 -0.000003 -0.000002 0.899503 0.000004
3.736667 0.182927 0.000000 0.000000 0.000000 0.000000
0.063333 0.197561 0.000000 0.000000 0.000000 0.000000
0.190000 0.197561 -0.001367 0.001808 0.716035 0.002266
0.316667 0.197561 -0.000720 0.001188 0.735827 0.001389
0.443333 0.197561 -0.000224 0.000422 0.750470 0.000478
0.570000 0.197561 0.000351 0.000545 0.774204 0.000649
0.696667 0.197561 0.001017 0.000424 0.788386 0.001102
0.823333 0.197561 0.000229 -0.000228 0.795034 0.000324
0.950000 0.197561 -0.000649 -0.000277 0.809315 0.000706
1.076667 0.197561 -0.001698 -0.000774 0.817664 0.001866
1.203333 0.197561 -0.002164 -0.001831 0.790752 0.002835
1.330000 0.197561 -0.001030 -0.001501 0.808877 0.001821
1.456667 0.197561 -0.001332 -0.001073 0.825319 0.001710
1.583333 0.197561 -0.001031 -0.000394 0.849350 0.001104
1.710000 0.197561 -0.000681 -0.000284 0.861427 0.000737
1.836667 0.197561 -0.000404 -0.000054 0.884296 0.000408
1.963333 0.197561 -0.000188 -0.000010 0.891909 0.000189
2.090000 0.197561 -0.000047 -0.000009 0.894761 0.000048
2.216667 0.197561 -0.000039 -0.000007 0.895949 0.000040
2.343333 0.197561 -0.000033 -0.000000 0.897994 0.000033
2.470000 0.197561 -0.000002 0.000000 0.899869 0.000002
2.596667 0.197561 -0.000002 -0.000002 0.898017 0.000002
2.723333 0.197561 0.000003 -0.000007 0.895372 0.000008
2.850000 0.197561 -0.000141 -0.000013 0.894720 0.000142
2.976667 0.197561 -0.000780 -0.000136 0.880908 0.000792
3.103333 0.197561 -0.000575 -0.000136 0.884151 0.000591
3.230000 0.197561 -0.000138 0.000002 0.895768 0.000138
3.356667 0.197561 -0.001346 -0.000420 0.874366 0.001410
3.483333 0.197561 -0.000019 0.000001 0.899587 0.000019
3.610000 0.197561 -0.000086 -0.000057 0.888601 0.000103
3.736667 0.197561 0.000000 0.000000 0.000000 0.000000
0.063333 0.212195 0.000000 0.000000 0.000000 0.000000
0.190000 0.212195 0.000061 0.003104 0.615260 0.003105
0.316667 0.212195 0.003303 0.001731 0.609273 0.003730
0.443333 0.212195 0.004676 0.000776 0.602277 0.004740
0.570000 0.212195 0.005587 0.000995 0.608614 0.005675
0.696667 0.212195 0.006615 0.000807 0.608755 0.006664
0.823333 0.212195 0.005554 -0.000265 0.600090 0.005561
0.950000 0.212195 0.003168 -0.000759 0.601754 0.003258
1.076667 0.212195 0.002444 -0.002978 0.603775 0.003852
1.203333 0.212195 0.001776 -0.004960 0.600597 0.005269
1.330000 0.212195 -0.000359 -0.004832 0.601587 0.004845
1.456667 0.212195 -0.002275 -0.004493 0.601375 0.005036
1.583333 0.212195 -0.002881 -0.002379 0.602921 0.003736
1.710000 0.212195 -0.000492 -0.001259 0.602583 0.001352
1.836667 0.212195 -0.002279 -0.000694 0.607414 0.002383
1.963333 0.212195 -0.002203 0.000104 0.613550 0.002205
2.090000 0.212195 0.002190 -0.000154 0.615792 0.002196
2.216667 0.212195 0.003007 -0.000024 0.616726 0.003007
2.343333 0.212195 0.001333 0.000165 0.634376 0.001343
2.470000 0.212195 0.001980 0.000111 0.648276 0.001983
2.596667 0.212195 0.005124 -0.000289 0.660002 0.005132
2.723333 0.212195 0.005159 -0.000692 0.675940 0.005205
2.850000 0.212195 -0.001946 -0.000533 0.697836 0.002018
2.976667 0.212195 -0.006704 -0.001177 0.706344 0.006807
3.103333 0.212195 -0.005028 -0.000968 0.726982 0.005121
3.230000 0.212195 -0.003492 -0.000447 0.756717 0.003521
3.356667 0.212195 -0.006694 -0.001632 0.750005 0.006891
3.483333 0.212195 -0.004152 -0.000231 0.791698 0.004158
3.610000 0.212195 -0.000835 -0.000725 0.780290 0.001106
3.736667 0.212195 0.000000 0.000000 0.000000 0.000000
0.063333 0.226829 0.000000 0.000000 0.000000 0.000000
0.190000 0.226829 0.000271 0.003310 0.601147 0.003321
0.316667 0.226829 0.003746 0.001437 0.600289 0.004012
0.443333 0.226829 0.005685 0.000533 0.600020 0.005710
0.570000 0.226829 0.007288 0.000820 0.600199 0.007334
0.696667 0.226829 0.006787 0.000527 0.600126 0.006808
0.823333 0.226829 0.005592 -0.000306 0.600001 0.005600
0.950000 0.226829 0.003357 -0.000625 0.600013 0.003414
1.076667 0.226829 0.000642 -0.003642 0.600014 0.003698
1.203333 0.226829 0.000290 -0.004908 0.600005 0.004917
1.330000 0.226829 -0.000833 -0.005122 0.600013 0.005189
1.456667 0.226829 -0.002780 -0.005507 0.600005 0.006169
1.583333 0.226829 -0.002842 -0.002985 0.600050 0.004121
1.710000 0.226829 0.000605 -0.000674 0.600014 0.000906
1.836667 0.226829 -0.000583 -0.000554 0.600101 0.000804
1.963333 0.226829 -0.000564 0.000372 0.600352 0.000676
2.090000 0.226829 0.003799 0.000005 0.600307 0.003799
2.216667 0.226829 0.005728 0.000060 0.600234 0.005728
2.343333 0.226829 0.005267 0.000322 0.600803 0.005277
2.470000 0.226829 0.006342 0.000200 0.600765 0.006345
2.596667 0.226829 0.011109 -0.000657 0.600077 0.011128
2.723333 0.226829 0.011194 -0.001326 0.600011 0.011272
2.850000 0.226829 0.001025 -0.000780 0.601505 0.001288
2.976667 0.226829 -0.005871 -0.001233 0.600013 0.006000
3.103333 0.226829 -0.004202 -0.000951 0.600061 0.004308
3.230000 0.226829 -0.004366 -0.001317 0.604373 0.004560
3.356667 0.226829 -0.010546 -0.001789 0.600042 0.010696
3.483333 0.226829 -0.008851 -0.001651 0.600961 0.009004
3.610000 0.226829 -0.001737 -0.001989 0.600000 0.002641
3.736667 0.226829 0.000000 0.000000 0.000000 0.000000
0.063333 0.241463 0.000000 0.000000 0.000000 0.000000
0.190000 0.241463 0.000631 0.003320 0.600060 0.003379
0.316667 0.241463 0.004405 0.001136 0.600005 0.004549
0.443333 0.241463 0.006524 0.000190 0.600000 0.006527
0.570000 0.241463 0.009180 0.000582 0.600003 0.009198
0.696667 0.241463 0.007767 0.000580 0.600001 0.007788
0.823333 0.241463 0.005890 -0.000634 0.600000 0.005924
0.950000 0.241463 0.003384 -0.000156 0.600000 0.003388
1.076667 0.241463 -0.000530 -0.004171 0.600000 0.004204
1.203333 0.241463 -0.000297 -0.005095 0.600000 0.005104
1.330000 0.241463 -0.001102 -0.005400 0.600000 0.005511
1.456667 0.241463 -0.003218 -0.006373 0.600000 0.007140
1.583333 0.241463 -0.002589 -0.003924 0.600001 0.004702
1.710000 0.241463 0.001438 -0.000482 0.600000 0.001517
1.836667 0.241463 0.000267 -0.000643 0.600001 0.000697
1.963333 0.241463 0.000224 0.000448 0.600005 0.000501
2.090000 0.241463 0.004342 -0.000009 0.600006 0.004342
2.216667 0.241463 0.006209 -0.000177 0.600003 0.006211
2.343333 0.241463 0.005748 0.000380 0.600015 0.005761
2.470000 0.241463 0.006777 0.000319 0.600010 0.006784
2.596667 0.241463 0.011836 -0.001014 0.600000 0.011879
2.723333 0.241463 0.010922 -0.001412 0.600000 0.011013
2.850000 0.241463 0.000930 -0.000933 0.600037 0.001317
2.976667 0.241463 -0.004977 -0.000511 0.600000 0.005003
3.103333 0.241463 -0.004042 -0.000126 0.600001 0.004044
3.230000 0.241463 -0.004902 -0.001243 0.600105 0.005057
3.356667 0.241463 -0.010693 -0.000461 0.600000 0.010703
3.483333 0.241463 -0.008677 -0.002299 0.600002 0.008976
3.610000 0.241463 -0.001839 -0.002032 0.600000 0.002741
3.736667 0.241463 0.000000 0.000000 0.000000 0.000000
0.063333 0.256098 0.000000 0.000000 0.000000 0.000000
0.190000 0.256098 0.000418 0.003308 0.600002 0.003335
0.316667 0.256098 0.003901 0.000855 0.600000 0.003993
0.443333 0.256098 0.005961 -0.000176 0.600000 0.005964
0.570000 0.256098 0.009313 0.000176 0.600000 0.009315
0.696667 0.256098 0.007795 0.000895 0.600000 0.007846
0.823333 0.256098 0.005217 -0.001087 0.600000 0.005329
0.950000 0.256098 0.005030 0.000241 0.600000 0.005036
1.076667 0.256098 0.001191 -0.004342 0.600000 0.004503
1.203333 0.256098 -0.000472 -0.005435 0.600000 0.005455
1.330000 0.256098 -0.001297 -0.005643 0.600000 0.005790
1.456667 0.256098 -0.004336 -0.006373 0.600000 0.007708
1.583333 0.256098 -0.003022 -0.004448 0.600000 0.005377
1.710000 0.256098 0.002272 -0.000288 0.600000 0.002291
1.836667 0.256098 0.000204 -0.000640 0.600000 0.000672
1.963333 0.256098 -0.000900 0.000589 0.600000 0.001075
2.090000 0.256098 0.002795 0.000019 0.600000 0.002795
2.216667 0.256098 0.004492 -0.000412 0.600000 0.004511
2.343333 0.256098 0.004643 0.000385 0.600000 0.004659
2.470000 0.256098 0.005559 0.000583 0.600000 0.005590
2.596667 0.256098 0.009638 -0.001341 0.600000 0.009731
2.723333 0.256098 0.009932 -0.001502 0.600000 0.010045
2.850000 0.256098 0.001666 -0.001252 0.600000 0.002084
2.976667 0.256098 -0.003857 0.000202 0.600000 0.003863
3.103333 0.256098 -0.003658 0.000761 0.600000 0.003736
3.230000 0.256098 -0.005339 -0.000949 0.600002 0.005422
3.356667 0.256098 -0.011012 0.000755 0.600000 0.011038
3.483333 0.256098 -0.008959 -0.002905 0.600000 0.009418
3.610000 0.256098 -0.001980 -0.002108 0.600000 0.002892
3.736667 0.256098 0.000000 0.000000 0.000000 0.000000
0.063333 0.270732 0.000000 0.000000 0.000000 0.000000