TITLE="(Vx,Vy)"
VARIABLES=X,Y,Vx,Vy,Vm,V
ZONE T="T-Dummy" I=30, J=41, F=POINT
0.063333 0.007317 0.000000 0.000000 0.000000 0.000000
0.190000 0.007317 0.000000 0.000000 0.000000 0.000000
0.316667 0.007317 0.000000 0.000000 0.000000 0.000000
0.443333 0.007317 0.000000 0.000000 0.000000 0.000000
0.570000 0.007317 0.000000 0.000000 0.000000 0.000000
0.696667 0.007317 0.000000 0.000000 0.000000 0.000000
0.823333 0.007317 0.000000 0.000000 0.000000 0.000000
0.950000 0.007317 0.000000 0.000000 0.000000 0.000000
1.076667 0.007317 0.000000 0.000000 0.000000 0.000000
1.203333 0.007317 0.000000 0.000000 0.000000 0.000000
1.330000 0.007317 0.000000 0.000000 0.000000 0.000000
1.456667 0.007317 0.000000 0.000000 0.000000 0.000000
1.583333 0.007317 0.000000 0.000000 0.000000 0.000000
1.710000 0.007317 0.000000 0.000000 0.000000 0.000000
1.836667 0.007317 0.000000 0.000000 0.000000 0.000000
1.963333 0.007317 0.000000 0.000000 0.000000 0.000000
2.090000 0.007317 0.000000 0.000000 0.000000 0.000000
2.216667 0.007317 0.000000 0.000000 0.000000 0.000000
2.343333 0.007317 0.000000 0.000000 0.000000 0.000000
2.470000 0.007317 0.000000 0.000000 0.000000 0.000000
2.596667 0.007317 0.000000 0.000000 0.000000 0.000000
2.723333 0.007317 0.000000 0.000000 0.000000 0.000000
2.850000 0.007317 0.000000 0.000000 0.000000 0.000000
2.976667 0.007317 0.000000 0.000000 0.000000 0.000000
3.103333 0.007317 0.000000 0.000000 0.000000 0.000000
3.230000 0.007317 0.000000 0.000000 0.000000 0.000000
3.356667 0.007317 0.000000 0.000000 0.000000 0.000000
3.483333 0.007317 0.000000 0.000000 0.000000 0.000000
3.610000 0.007317 0.000000 0.000000 0.000000 0.000000
3.736667 0.007317 0.000000 0.000000 0.000000 0.000000
0.063333 0.021951 0.000000 0.000000 0.000000 0.000000
0.190000 0.021951 0.000000 -0.000000 0.900000 0.000000
0.316667 0.021951 0.000000 -0.000000 0.900000 0.000000
0.443333 0.021951 0.000000 0.000000 0.900000 0.000000
0.570000 0.021951 0.000000 0.000000 0.900000 0.000000
0.696667 0.021951 -0.000000 0.000000 0.900000 0.000000
0.823333 0.021951 -0.000000 0.000000 0.900000 0.000000
0.950000 0.021951 -0.000000 0.000000 0.900000 0.000000
1.076667 0.021951 -0.000000 -0.000000 0.900000 0.000000
1.203333 0.021951 -0.000000 -0.000000 0.900000 0.000000
1.330000 0.021951 -0.000000 0.000000 0.900000 0.000000
1.456667 0.021951 -0.000000 -0.000000 0.900000 0.000000
1.583333 0.021951 0.000000 -0.000000 0.900000 0.000000
1.710000 0.021951 -0.000000 0.000000 0.900000 0.000000
1.836667 0.021951 -0.000000 -0.000000 0.900000 0.000000
1.963333 0.021951 -0.000000 -0.000000 0.900000 0.000000
2.090000 0.021951 -0.000000 0.000000 0.900000 0.000000
2.216667 0.021951 -0.000000 -0.000000 0.900000 0.000000
2.343333 0.021951 -0.000000 0.000000 0.900000 0.000000
2.470000 0.021951 -0.000000 -0.000000 0.900000 0.000000
2.596667 0.021951 -0.000000 -0.000000 0.900000 0.000000
2.723333 0.021951 -0.000000 0.000000 0.900000 0.000000
2.850000 0.021951 -0.000000 0.000000 0.900000 0.000000
2.976667 0.021951 -0.000000 -0.000000 0.900000 0.000000
3.103333 0.021951 -0.000000 -0.000000 0.900000 0.000000
3.230000 0.021951 0.000000 -0.000000 0.900000 0.000000
3.356667 0.021951 0.000000 -0.000000 0.900000 0.000000
3.483333 0.021951 0.000000 0.000000 0.900000 0.000000
3.610000 0.021951 0.000000 0.000000 0.900000 0.000000
3.736667 0.021951 0.000000 0.000000 0.000000 0.000000
0.063333 0.036585 0.000000 0.000000 0.000000 0.000000
0.190000 0.036585 0.000000 -0.000000 0.900000 0.000000
0.316667 0.036585 0.000000 -0.000000 0.900000 0.000000
0.443333 0.036585 0.000000 0.000000 0.900000 0.000000
0.570000 0.036585 0.000000 0.000000 0.900000 0.000000
0.696667 0.036585 -0.000000 0.000000 0.900000 0.000000
0.823333 0.036585 -0.000000 -0.000000 0.900000 0.000000
0.950000 0.036585 -0.000000 0.000000 0.900000 0.000000
1.076667 0.036585 -0.000000 -0.000000 0.900000 0.000000
1.203333 0.036585 -0.000000 -0.000000 0.900000 0.000000
1.330000 0.036585 -0.000000 0.000000 0.900000 0.000000
1.456667 0.036585 -0.000000 -0.000000 0.900000 0.000000
1.583333 0.036585 -0.000000 -0.000000 0.900000 0.000000
1.710000 0.036585 -0.000000 0.000000 0.900000 0.000000
1.836667 0.036585 0.000000 -0.000000 0.900000 0.000000
1.963333 0.036585 0.000000 -0.000000 0.900000 0.000000
2.090000 0.036585 0.000000 0.000000 0.900000 0.000000
2.216667 0.036585 0.000000 -0.000000 0.900000 0.000000
2.343333 0.036585 0.000000 0.000000 0.900000 0.000000
2.470000 0.036585 0.000000 -0.000000 0.900000 0.000000
2.596667 0.036585 0.000000 -0.000000 0.900000 0.000000
2.723333 0.036585 0.000000 0.000000 0.900000 0.000000
2.850000 0.036585 0.000000 0.000000 0.900000 0.000000
2.976667 0.036585 0.000000 -0.000000 0.900000 0.000000
3.103333 0.036585 0.000000 0.000000 0.900000 0.000000
3.230000 0.036585 0.000000 -0.000000 0.900000 0.000000
3.356667 0.036585 0.000000 -0.000000 0.900000 0.000000
3.483333 0.036585 0.000000 0.000000 0.900000 0.000000
3.610000 0.036585 0.000000 0.000000 0.900000 0.000000
3.736667 0.036585 0.000000 0.000000 0.000000 0.000000
0.063333 0.051220 0.000000 0.000000 0.000000 0.000000
0.190000 0.051220 0.000000 -0.000000 0.900000 0.000000
0.316667 0.051220 0.000000 -0.000000 0.900000 0.000000
0.443333 0.051220 0.000000 0.000000 0.900000 0.000000
0.570000 0.051220 0.000000 0.000000 0.900000 0.000000
0.696667 0.051220 -0.000000 0.000000 0.900000 0.000000
0.823333 0.051220 -0.000000 -0.000000 0.900000 0.000000
0.950000 0.051220 -0.000000 -0.000000 0.900000 0.000000
1.076667 0.051220 -0.000000 -0.000000 0.900000 0.000000
1.203333 0.051220 -0.000000 -0.000000 0.900000 0.000000
1.330000 0.051220 -0.000000 0.000000 0.900000 0.000000
1.456667 0.051220 -0.000000 -0.000000 0.900000 0.000000
1.583333 0.051220 -0.000000 -0.000000 0.900000 0.000000
1.710000 0.051220 0.000000 0.000000 0.900000 0.000000
1.836667 0.051220 0.000000 -0.000000 0.900000 0.000000
1.963333 0.051220 0.000000 -0.000000 0.900000 0.000000
2.090000 0.051220 0.000000 0.000000 0.900000 0.000000
2.216667 0.051220 0.000000 -0.000000 0.900000 0.000000
2.343333 0.051220 0.000000 0.000000 0.900000 0.000000
2.470000 0.051220 0.000000 -0.000000 0.900000 0.000000
2.596667 0.051220 0.000000 -0.000000 0.900000 0.000000
2.723333 0.051220 0.000000 0.000000 0.900000 0.000000
2.850000 0.051220 0.000000 0.000000 0.900000 0.000000
2.976667 0.051220 0.000000 -0.000000 0.900000 0.000000
3.103333 0.051220 0.000000 0.000000 0.900000 0.000000
3.230000 0.051220 0.000000 0.000000 0.900000 0.000000
3.356667 0.051220 0.000000 -0.000000 0.900000 0.000000
3.483333 0.051220 0.000000 0.000000 0.900000 0.000000
3.610000 0.051220 0.000000 0.000000 0.900000 0.000000
3.736667 0.051220 0.000000 0.000000 0.000000 0.000000
0.063333 0.065854 0.000000 0.000000 0.000000 0.000000
0.190000 0.065854 0.000000 -0.000000 0.900000 0.000000
0.316667 0.065854 0.000000 -0.000000 0.900000 0.000000
0.443333 0.065854 0.000000 0.000000 0.900000 0.000000
0.570000 0.065854 0.000000 0.000000 0.900000 0.000000
0.696667 0.065854 -0.000000 0.000000 0.900000 0.000000
0.823333 0.065854 -0.000000 -0.000000 0.900000 0.000000
0.950000 0.065854 -0.000000 -0.000000 0.900000 0.000000
1.076667 0.065854 -0.000000 -0.000000 0.900000 0.000000
1.203333 0.065854 -0.000000 -0.000000 0.900000 0.000000
1.330000 0.065854 -0.000000 0.000000 0.900000 0.000000
1.456667 0.065854 -0.000000 -0.000000 0.900000 0.000000
1.583333 0.065854 -0.000000 0.000000 0.900000 0.000000
1.710000 0.065854 0.000000 0.000000 0.900000 0.000000
1.836667 0.065854 0.000000 -0.000000 0.900000 0.000000
1.963333 0.065854 0.000000 -0.000000 0.900000 0.000000
2.090000 0.065854 0.000000 -0.000000 0.900000 0.000000
2.216667 0.065854 0.000000 -0.000000 0.900000 0.000000
2.343333 0.065854 0.000000 0.000000 0.900000 0.000000
2.470000 0.065854 0.000000 0.000000 0.900000 0.000000
2.596667 0.065854 0.000000 -0.000000 0.900000 0.000000
2.723333 0.065854 0.000000 0.000000 0.900000 0.000000
2.850000 0.065854 0.000000 0.000000 0.900000 0.000000
2.976667 0.065854 0.000000 -0.000000 0.900000 0.000000
3.103333 0.065854 0.000000 0.000000 0.900000 0.000000
3.230000 0.065854 0.000000 0.000000 0.900000 0.000000
3.356667 0.065854 0.000000 -0.000000 0.900000 0.000000
3.483333 0.065854 0.000000 0.000000 0.900000 0.000000
3.610000 0.065854 0.000000 0.000000 0.900000 0.000000
3.736667 0.065854 0.000000 0.000000 0.000000 0.000000
0.063333 0.080488 0.000000 0.000000 0.000000 0.000000
0.190000 0.080488 0.000000 -0.000000 0.900000 0.000000
0.316667 0.080488 0.000000 -0.000000 0.900000 0.000000
0.443333 0.080488 0.000000 0.000000 0.900000 0.000000
0.570000 0.080488 0.000000 0.000000 0.900000 0.000000
0.696667 0.080488 -0.000000 0.000000 0.900000 0.000000
0.823333 0.080488 -0.000000 -0.000000 0.900000 0.000000
0.950000 0.080488 -0.000000 -0.000000 0.900000 0.000000
1.076667 0.080488 -0.000000 -0.000000 0.900000 0.000000
1.203333 0.080488 -0.000000 -0.000000 0.900000 0.000000
1.330000 0.080488 -0.000000 0.000000 0.900000 0.000000
1.456667 0.080488 -0.000000 -0.000000 0.900000 0.000000
1.583333 0.080488 -0.000000 0.000000 0.900000 0.000000
1.710000 0.080488 0.000000 0.000000 0.900000 0.000000
1.836667 0.080488 0.000000 -0.000000 0.900000 0.000000
1.963333 0.080488 0.000000 -0.000000 0.900000 0.000000
2.090000 0.080488 0.000000 -0.000000 0.900000 0.000000
2.216667 0.080488 0.000000 -0.000000 0.900000 0.000000
2.343333 0.080488 0.000000 0.000000 0.900000 0.000000
2.470000 0.080488 0.000000 0.000000 0.900000 0.000000
2.596667 0.080488 0.000000 -0.000000 0.900000 0.000000
2.723333 0.080488 0.000000 0.000000 0.900000 0.000000
2.850000 0.080488 0.000000 -0.000000 0.900000 0.000000
2.976667 0.080488 0.000000 -0.000000 0.900000 0.000000
3.103333 0.080488 0.000000 0.000000 0.900000 0.000000
3.230000 0.080488 0.000000 0.000000 0.900000 0.000000
3.356667 0.080488 0.000000 -0.000000 0.900000 0.000000
3.483333 0.080488 0.000000 0.000000 0.900000 0.000000
3.610000 0.080488 0.000000 0.000000 0.900000 0.000000
3.736667 0.080488 0.000000 0.000000 0.000000 0.000000
0.063333 0.095122 0.000000 0.000000 0.000000 0.000000
0.190000 0.095122 0.000000 -0.000000 0.900000 0.000000
0.316667 0.095122 0.000000 -0.000000 0.900000 0.000000
0.443333 0.095122 0.000000 0.000000 0.900000 0.000000
0.570000 0.095122 -0.000000 0.000000 0.900000 0.000000
0.696667 0.095122 -0.000000 0.000000 0.900000 0.000000
0.823333 0.095122 -0.000000 -0.000000 0.900000 0.000000
0.950000 0.095122 -0.000000 -0.000000 0.900000 0.000000
1.076667 0.095122 -0.000000 -0.000000 0.900000 0.000000
1.203333 0.095122 -0.000000 -0.000000 0.900000 0.000000
1.330000 0.095122 -0.000000 0.000000 0.900000 0.000000
1.456667 0.095122 -0.000000 -0.000000 0.900000 0.000000
1.583333 0.095122 -0.000000 0.000000 0.900000 0.000000
1.710000 0.095122 -0.000000 0.000000 0.900000 0.000000
1.836667 0.095122 0.000000 -0.000000 0.900000 0.000000
1.963333 0.095122 0.000000 -0.000000 0.900000 0.000000
2.090000 0.095122 0.000000 -0.000000 0.900000 0.000000
2.216667 0.095122 0.000000 -0.000000 0.900000 0.000000
2.343333 0.095122 0.000000 0.000000 0.900000 0.000000
2.470000 0.095122 0.000000 0.000000 0.900000 0.000000
2.596667 0.095122 0.000000 -0.000000 0.900000 0.000000
2.723333 0.095122 0.000000 0.000000 0.900000 0.000000
2.850000 0.095122 0.000000 -0.000000 0.900000 0.000000
2.976667 0.095122 0.000000 -0.000000 0.900000 0.000000
3.103333 0.095122 0.000000 0.000000 0.900000 0.000000
3.230000 0.095122 0.000000 0.000000 0.900000 0.000000
3.356667 0.095122 0.000000 -0.000000 0.900000 0.000000
3.483333 0.095122 0.000000 0.000000 0.900000 0.000000
3.610000 0.095122 0.000000 0.000000 0.900000 0.000000
3.736667 0.095122 0.000000 0.000000 0.000000 0.000000
0.063333 0.109756 0.000000 0.000000 0.000000 0.000000
0.190000 0.109756 0.000000 -0.000000 0.900000 0.000000
0.316667 0.109756 0.000000 -0.000000 0.900000 0.000000
0.443333 0.109756 -0.000000 0.000000 0.900000 0.000000
0.570000 0.109756 -0.000000 0.000000 0.900000 0.000000
0.696667 0.109756 -0.000000 0.000000 0.900000 0.000000
0.823333 0.109756 -0.000000 -0.000000 0.900000 0.000000
0.950000 0.109756 -0.000000 -0.000000 0.900000 0.000000
1.076667 0.109756 -0.000000 -0.000000 0.900000 0.000000
1.203333 0.109756 -0.000000 -0.000000 0.900000 0.000000
1.330000 0.109756 -0.000000 -0.000000 0.900000 0.000000
1.456667 0.109756 -0.000000 -0.000000 0.900000 0.000000
1.583333 0.109756 -0.000000 0.000000 0.900000 0.000000
1.710000 0.109756 0.000000 -0.000000 0.900000 0.000000
1.836667 0.109756 0.000000 0.000000 0.900000 0.000000
1.963333 0.109756 0.000000 -0.000000 0.900000 0.000000
2.090000 0.109756 0.000000 -0.000000 0.900000 0.000000
2.216667 0.109756 0.000000 -0.000000 0.900000 0.000000
2.343333 0.109756 0.000000 0.000000 0.900000 0.000000
2.470000 0.109756 0.000000 0.000000 0.900000 0.000000
2.596667 0.109756 0.000000 -0.000000 0.900000 0.000000
2.723333 0.109756 0.000000 0.000000 0.900000 0.000000
2.850000 0.109756 0.000000 -0.000000 0.900000 0.000000
2.976667 0.109756 0.000000 -0.000000 0.900000 0.000000
3.103333 0.109756 0.000000 0.000000 0.900000 0.000000
3.230000 0.109756 0.000000 0.000000 0.900000 0.000000
3.356667 0.109756 0.000000 -0.000000 0.900000 0.000000
3.483333 0.109756 0.000000 0.000000 0.900000 0.000000
3.610000 0.109756 0.000000 0.000000 0.900000 0.000000
3.736667 0.109756 0.000000 0.000000 0.000000 0.000000
0.063333 0.124390 0.000000 0.000000 0.000000 0.000000
0.190000 0.124390 -0.000000 -0.000000 0.900000 0.000000
0.316667 0.124390 -0.000000 -0.000000 0.900000 0.000000
0.443333 0.124390 -0.000000 0.000000 0.900000 0.000000
0.570000 0.124390 -0.000000 0.000000 0.900000 0.000000
0.696667 0.124390 -0.000000 0.000000 0.900000 0.000000
0.823333 0.124390 -0.000000 -0.000000 0.900000 0.000000
0.950000 0.124390 -0.000000 -0.000000 0.900000 0.000000
1.076667 0.124390 -0.000000 -0.000000 0.900000 0.000000
1.203333 0.124390 -0.000000 -0.000000 0.900000 0.000000
1.330000 0.124390 -0.000000 -0.000000 0.900000 0.000000
1.456667 0.124390 -0.000000 -0.000000 0.900000 0.000000
1.583333 0.124390 -0.000000 0.000000 0.900000 0.000000
1.710000 0.124390 0.000000 -0.000000 0.900000 0.000000
1.836667 0.124390 0.000000 0.000000 0.900000 0.000000
1.963333 0.124390 0.000000 -0.000000 0.900000 0.000000
2.090000 0.124390 0.000000 -0.000000 0.900000 0.000000
2.216667 0.124390 0.000000 -0.000000 0.900000 0.000000
2.343333 0.124390 0.000000 0.000000 0.900000 0.000000
2.470000 0.124390 0.000000 0.000000 0.900000 0.000000
2.596667 0.124390 0.000000 -0.000000 0.900000 0.000000
2.723333 0.124390 0.000000 0.000000 0.900000 0.000000
2.850000 0.124390 0.000000 -0.000000 0.900000 0.000000
2.976667 0.124390 0.000000 -0.000000 0.900000 0.000000
3.103333 0.124390 0.000000 0.000000 0.900000 0.000000
3.230000 0.124390 0.000000 0.000000 0.900000 0.000000
3.356667 0.124390 0.000000 -0.000000 0.899999 0.000000
3.483333 0.124390 0.000000 0.000000 0.900000 0.000000
3.610000 0.124390 0.000000 0.000000 0.900000 0.000000
3.736667 0.124390 0.000000 0.000000 0.000000 0.000000
0.063333 0.139024 0.000000 0.000000 0.000000 0.000000
0.190000 0.139024 -0.000000 -0.000000 0.900000 0.000000
0.316667 0.139024 -0.000000 -0.000000 0.900000 0.000000
0.443333 0.139024 -0.000000 0.000000 0.900000 0.000000
0.570000 0.139024 -0.000000 0.000000 0.900000 0.000000
0.696667 0.139024 0.000000 0.000000 0.900000 0.000000
0.823333 0.139024 0.000000 -0.000000 0.900000 0.000000
0.950000 0.139024 -0.000000 -0.000000 0.899999 0.000000
1.076667 0.139024 -0.000000 -0.000000 0.900000 0.000000
1.203333 0.139024 -0.000000 -0.000000 0.900000 0.000000
1.330000 0.139024 -0.000000 -0.000000 0.900000 0.000000
1.456667 0.139024 -0.000000 -0.000000 0.900000 0.000000
1.583333 0.139024 -0.000000 0.000000 0.900000 0.000000
1.710000 0.139024 -0.000000 -0.000000 0.900000 0.000000
1.836667 0.139024 0.000000 0.000000 0.900000 0.000000
1.963333 0.139024 0.000000 -0.000000 0.900000 0.000000
2.090000 0.139024 0.000000 -0.000000 0.900000 0.000000
2.216667 0.139024 0.000000 -0.000000 0.900000 0.000000
2.343333 0.139024 0.000000 0.000000 0.900000 0.000000
2.470000 0.139024 0.000000 -0.000000 0.900000 0.000000
2.596667 0.139024 0.000000 -0.000000 0.900000 0.000000
2.723333 0.139024 0.000000 0.000000 0.900000 0.000000
2.850000 0.139024 0.000000 -0.000000 0.900000 0.000000
2.976667 0.139024 0.000000 -0.000000 0.900000 0.000000
3.103333 0.139024 0.000000 0.000000 0.899998 0.000000
3.230000 0.139024 0.000000 0.000000 0.900000 0.000000
3.356667 0.139024 0.000000 -0.000001 0.899993 0.000001
3.483333 0.139024 0.000000 0.000000 0.900000 0.000000
3.610000 0.139024 0.000000 0.000000 0.900000 0.000000
3.736667 0.139024 0.000000 0.000000 0.000000 0.000000
0.063333 0.153659 0.000000 0.000000 0.000000 0.000000
0.190000 0.153659 -0.000000 -0.000000 0.900000 0.000000
0.316667 0.153659 -0.000000 -0.000000 0.899999 0.000000
0.443333 0.153659 -0.000000 0.000000 0.899997 0.000000
0.570000 0.153659 -0.000000 0.000000 0.900000 0.000000
0.696667 0.153659 0.000000 0.000000 0.900000 0.000000
0.823333 0.153659 0.000000 -0.000000 0.899999 0.000000
0.950000 0.153659 -0.000000 -0.000000 0.899992 0.000000
1.076667 0.153659 -0.000000 -0.000000 0.899997 0.000000
1.203333 0.153659 -0.000000 -0.000000 0.899998 0.000000
1.330000 0.153659 -0.000001 -0.000000 0.899991 0.000001
1.456667 0.153659 -0.000000 -0.000000 0.899995 0.000000
1.583333 0.153659 -0.000000 0.000000 0.900000 0.000000
1.710000 0.153659 0.000000 -0.000000 0.900000 0.000000
1.836667 0.153659 0.000000 -0.000000 0.900000 0.000000
1.963333 0.153659 0.000000 -0.000000 0.900000 0.000000
2.090000 0.153659 0.000000 -0.000000 0.900000 0.000000
2.216667 0.153659 0.000000 -0.000000 0.900000 0.000000
2.343333 0.153659 0.000000 0.000000 0.900000 0.000000
2.470000 0.153659 0.000000 -0.000000 0.900000 0.000000
2.596667 0.153659 0.000000 -0.000000 0.900000 0.000000
2.723333 0.153659 0.000000 0.000000 0.900000 0.000000
2.850000 0.153659 0.000000 -0.000000 0.900000 0.000000
2.976667 0.153659 0.000000 -0.000000 0.900000 0.000000
3.103333 0.153659 0.000003 0.000001 0.899959 0.000003
3.230000 0.153659 0.000000 0.000000 0.900000 0.000000
3.356667 0.153659 0.000002 -0.000003 0.899953 0.000004
3.483333 0.153659 0.000000 0.000000 0.900000 0.000000
3.610000 0.153659 0.000000 0.000000 0.900000 0.000000
3.736667 0.153659 0.000000 0.000000 0.000000 0.000000
0.063333 0.168293 0.000000 0.000000 0.000000 0.000000
0.190000 0.168293 -0.000000 -0.000000 0.900000 0.000000
0.316667 0.168293 -0.000000 -0.000001 0.899983 0.000001
0.443333 0.168293 -0.000001 0.000000 0.899972 0.000001
0.570000 0.168293 -0.000000 0.000000 0.900000 0.000000
0.696667 0.168293 0.000000 0.000000 0.900000 0.000000
0.823333 0.168293 0.000000 -0.000000 0.899992 0.000000
0.950000 0.168293 -0.000001 -0.000004 0.899914 0.000004
1.076667 0.168293 -0.000002 -0.000001 0.899976 0.000002
1.203333 0.168293 -0.000004 -0.000001 0.899967 0.000004
1.330000 0.168293 -0.000012 -0.000001 0.899877 0.000012
1.456667 0.168293 -0.000004 -0.000000 0.899948 0.000004
1.583333 0.168293 -0.000000 0.000000 0.900000 0.000000
1.710000 0.168293 0.000000 -0.000000 0.900000 0.000000
1.836667 0.168293 0.000000 -0.000000 0.900000 0.000000
1.963333 0.168293 0.000000 -0.000000 0.900000 0.000000
2.090000 0.168293 0.000000 -0.000000 0.899998 0.000000
2.216667 0.168293 0.000000 -0.000000 0.900000 0.000000
2.343333 0.168293 0.000000 0.000000 0.900000 0.000000
2.470000 0.168293 0.000000 -0.000000 0.899996 0.000000
2.596667 0.168293 0.000000 -0.000000 0.900000 0.000000
2.723333 0.168293 0.000000 0.000000 0.899999 0.000000
2.850000 0.168293 0.000001 -0.000000 0.899993 0.000001
2.976667 0.168293 0.000000 -0.000000 0.899996 0.000000
3.103333 0.168293 0.000040 0.000009 0.899494 0.000041
3.230000 0.168293 0.000000 0.000000 0.899999 0.000000
3.356667 0.168293 0.000007 -0.000015 0.899724 0.000017
3.483333 0.168293 -0.000000 0.000000 0.900000 0.000000
3.610000 0.168293 0.000000 0.000000 0.900000 0.000000
3.736667 0.168293 0.000000 0.000000 0.000000 0.000000
0.063333 0.182927 0.000000 0.000000 0.000000 0.000000
0.190000 0.182927 -0.000000 -0.000000 0.899994 0.000000
0.316667 0.182927 -0.000005 -0.000005 0.899799 0.000007
0.443333 0.182927 -0.000015 0.000001 0.899768 0.000015
0.570000 0.182927 -0.000000 0.000000 0.900000 0.000000
0.696667 0.182927 0.000000 0.000000 0.899998 0.000000
0.823333 0.182927 0.000004 -0.000001 0.899906 0.000004
0.950000 0.182927 -0.000012 -0.000028 0.899262 0.000031
1.076667 0.182927 -0.000024 -0.000007 0.899742 0.000025
1.203333 0.182927 -0.000039 -0.000010 0.899624 0.000041
1.330000 0.182927 -0.000116 -0.000010 0.898796 0.000117
1.456667 0.182927 -0.000034 -0.000004 0.899571 0.000034
1.583333 0.182927 -0.000000 0.000000 0.899999 0.000000
1.710000 0.182927 0.000000 -0.000000 0.899999 0.000000
1.836667 0.182927 0.000000 -0.000000 0.899994 0.000000
1.963333 0.182927 0.000000 -0.000000 0.899998 0.000000
2.090000 0.182927 0.000001 -0.000000 0.899965 0.000001
2.216667 0.182927 0.000000 -0.000000 0.900000 0.000000
2.343333 0.182927 0.000000 0.000000 0.900000 0.000000
2.470000 0.182927 0.000005 -0.000000 0.899951 0.000005
2.596667 0.182927 0.000000 -0.000000 0.899992 0.000000
2.723333 0.182927 0.000001 0.000000 0.899993 0.000001
2.850000 0.182927 0.000014 -0.000002 0.899880 0.000014
2.976667 0.182927 0.000007 -0.000001 0.899925 0.000007
3.103333 0.182927 0.000283 0.000052 0.896347 0.000288
3.230000 0.182927 0.000001 0.000000 0.899992 0.000001
3.356667 0.182927 0.000029 -0.000062 0.898466 0.000069
3.483333 0.182927 -0.000000 0.000000 0.900000 0.000000
3.610000 0.182927 0.000000 0.000000 0.900000 0.000000
3.736667 0.182927 0.000000 0.000000 0.000000 0.000000
0.063333 0.197561 0.000000 0.000000 0.000000 0.000000
0.190000 0.197561 -0.000002 -0.000002 0.899854 0.000002
0.316667 0.197561 -0.000075 -0.000040 0.897959 0.000085
0.443333 0.197561 -0.000138 0.000004 0.898296 0.000138
0.570000 0.197561 -0.000000 0.000000 0.899999 0.000000
0.696667 0.197561 0.000000 0.000002 0.899979 0.000002
0.823333 0.197561 0.000048 -0.000010 0.899018 0.000049
0.950000 0.197561 -0.000088 -0.000179 0.894708 0.000199
1.076667 0.197561 -0.000247 -0.000076 0.897139 0.000259
1.203333 0.197561 -0.000285 -0.000083 0.897035 0.000297
1.330000 0.197561 -0.000807 -0.000055 0.891826 0.000809
1.456667 0.197561 -0.000202 -0.000020 0.897532 0.000203
1.583333 0.197561 -0.000000 0.000000 0.899997 0.000000
1.710000 0.197561 0.000001 -0.000000 0.899961 0.000001
1.836667 0.197561 0.000009 -0.000002 0.899736 0.000009
1.963333 0.197561 0.000008 -0.000001 0.899835 0.000008
2.090000 0.197561 0.000025 -0.000002 0.899370 0.000025
2.216667 0.197561 0.000001 -0.000000 0.899964 0.000001
2.343333 0.197561 0.000000 0.000000 0.899994 0.000000
2.470000 0.197561 0.000067 -0.000003 0.899321 0.000067
2.596667 0.197561 0.000024 -0.000002 0.899659 0.000024
2.723333 0.197561 0.000032 0.000001 0.899687 0.000032
2.850000 0.197561 0.000227 -0.000023 0.897945 0.000228
2.976667 0.197561 0.000137 -0.000013 0.898386 0.000137
3.103333 0.197561 0.001103 0.000127 0.885819 0.001111
3.230000 0.197561 0.000003 0.000001 0.899964 0.000003
3.356667 0.197561 0.000100 -0.000187 0.891919 0.000212
3.483333 0.197561 -0.000000 0.000000 0.899999 0.000000
3.610000 0.197561 0.000000 0.000000 0.899990 0.000000
3.736667 0.197561 0.000000 0.000000 0.000000 0.000000
0.063333 0.212195 0.000000 0.000000 0.000000 0.000000
0.190000 0.212195 -0.000062 -0.000030 0.895980 0.000069
0.316667 0.212195 -0.000797 -0.000239 0.882328 0.000832
0.443333 0.212195 -0.001009 0.000012 0.889136 0.001009
0.570000 0.212195 -0.000004 0.000001 0.899956 0.000004
0.696667 0.212195 0.000002 0.000008 0.899887 0.000009
0.823333 0.212195 0.000560 -0.000054 0.890894 0.000562
0.950000 0.212195 -0.000411 -0.000905 0.869454 0.000994
1.076667 0.212195 -0.001818 -0.000659 0.876472 0.001934
1.203333 0.212195 -0.001766 -0.000491 0.881390 0.001833
1.330000 0.212195 -0.003842 -0.000237 0.862742 0.003850
1.456667 0.212195 -0.001035 -0.000090 0.888163 0.001039
1.583333 0.212195 -0.000000 0.000000 0.899991 0.000000
1.710000 0.212195 0.000039 -0.000002 0.898589 0.000039
1.836667 0.212195 0.000324 -0.000062 0.892166 0.000330
1.963333 0.212195 0.000426 -0.000044 0.892456 0.000429
2.090000 0.212195 0.000535 -0.000032 0.889535 0.000536
2.216667 0.212195 0.000073 -0.000003 0.897495 0.000073
2.343333 0.212195 0.000051 0.000001 0.899255 0.000051
2.470000 0.212195 0.001042 -0.000033 0.889980 0.001043
2.596667 0.212195 0.001013 -0.000073 0.887465 0.001016
2.723333 0.212195 0.000810 -0.000014 0.892119 0.000810
2.850000 0.212195 0.003310 -0.000289 0.869657 0.003322
2.976667 0.212195 0.002743 -0.000205 0.871112 0.002750
3.103333 0.212195 0.003822 0.000101 0.855123 0.003823
3.230000 0.212195 0.000640 0.000115 0.891671 0.000650
3.356667 0.212195 -0.000250 -0.000190 0.856658 0.000314
3.483333 0.212195 -0.001086 0.000828 0.872172 0.001366
3.610000 0.212195 0.000421 0.000852 0.853072 0.000950
3.736667 0.212195 0.000000 0.000000 0.000000 0.000000
0.063333 0.226829 0.000000 0.000000 0.000000 0.000000
0.190000 0.226829 -0.001075 -0.000453 0.778108 0.001167
0.316667 0.226829 -0.002563 -0.000978 0.781588 0.002743
0.443333 0.226829 -0.005707 0.000094 0.816685 0.005708
0.570000 0.226829 -0.003319 0.001303 0.856477 0.003565
0.696667 0.226829 0.000529 0.001611 0.872763 0.001695
0.823333 0.226829 0.005933 -0.000253 0.817888 0.005939
0.950000 0.226829 0.001864 -0.003391 0.773626 0.003870
1.076667 0.226829 -0.007277 -0.003185 0.785595 0.007943
1.203333 0.226829 -0.010665 -0.002273 0.799930 0.010905
1.330000 0.226829 -0.011768 -0.001136 0.790917 0.011823
1.456667 0.226829 -0.007879 -0.000524 0.812364 0.007897
1.583333 0.226829 -0.002085 0.000375 0.830916 0.002119
1.710000 0.226829 0.002945 -0.000219 0.807228 0.002953
1.836667 0.226829 0.006543 -0.000945 0.780454 0.006611
1.963333 0.226829 0.009826 -0.000943 0.763690 0.009871
2.090000 0.226829 0.010674 -0.000548 0.744453 0.010688
2.216667 0.226829 0.007740 -0.000130 0.736103 0.007742
2.343333 0.226829 0.014621 0.000175 0.721899 0.014623
2.470000 0.226829 0.025078 -0.000748 0.695137 0.025089
2.596667 0.226829 0.023594 -0.001016 0.675011 0.023615
2.723333 0.226829 0.027616 -0.000815 0.667021 0.027628
2.850000 0.226829 0.030076 -0.002327 0.641490 0.030166
2.976667 0.226829 0.031845 -0.002149 0.623307 0.031917
3.103333 0.226829 0.025258 -0.000232 0.662787 0.025259
3.230000 0.226829 0.016640 0.003951 0.658863 0.017103
3.356667 0.226829 -0.005466 0.003748 0.608731 0.006627
3.483333 0.226829 -0.011109 0.004246 0.674815 0.011893
3.610000 0.226829 0.000018 0.004874 0.640190 0.004874
3.736667 0.226829 0.000000 0.000000 0.000000 0.000000
0.063333 0.241463 0.000000 0.000000 0.000000 0.000000
0.190000 0.241463 -0.000084 -0.000361 0.603138 0.000371
0.316667 0.241463 0.002229 -0.001466 0.600171 0.002668
0.443333 0.241463 -0.007686 0.000492 0.613059 0.007702
0.570000 0.241463 -0.006262 0.005972 0.676978 0.008653
0.696667 0.241463 0.006094 0.008529 0.729307 0.010483
0.823333 0.241463 0.022274 -0.001677 0.608184 0.022337
0.950000 0.241463 0.013913 -0.007748 0.600236 0.015925
1.076667 0.241463 -0.013475 -0.007285 0.600159 0.015318
1.203333 0.241463 -0.028882 -0.005640 0.603838 0.029428
1.330000 0.241463 -0.023921 -0.004053 0.655775 0.024262
1.456667 0.241463 -0.023582 -0.000899 0.629881 0.023599
1.583333 0.241463 -0.007213 -0.002725 0.616898 0.007710
1.710000 0.241463 0.014048 -0.001208 0.607147 0.014100
1.836667 0.241463 0.023260 -0.002358 0.601388 0.023379
1.963333 0.241463 0.027556 -0.002232 0.600835 0.027647
2.090000 0.241463 0.024680 -0.001345 0.605977 0.024716
2.216667 0.241463 0.017353 -0.000109 0.605900 0.017354
2.343333 0.241463 0.025166 0.000554 0.604476 0.025172
2.470000 0.241463 0.037570 -0.001678 0.600606 0.037607
2.596667 0.241463 0.033475 -0.000677 0.601066 0.033482
2.723333 0.241463 0.035015 -0.000778 0.600717 0.035024
2.850000 0.241463 0.032492 -0.002528 0.600151 0.032590
2.976667 0.241463 0.031221 -0.002885 0.600009 0.031354
3.103333 0.241463 0.027837 0.000028 0.609507 0.027837
3.230000 0.241463 0.015937 0.006145 0.610227 0.017080
3.356667 0.241463 -0.006299 0.007880 0.600805 0.010088
3.483333 0.241463 -0.014004 0.003001 0.607784 0.014322
3.610000 0.241463 -0.001923 0.005222 0.603302 0.005565
3.736667 0.241463 0.000000 0.000000 0.000000 0.000000
0.063333 0.256098 0.000000 0.000000 0.000000 0.000000
0.190000 0.256098 -0.000747 0.000252 0.600049 0.000789
0.316667 0.256098 0.001013 -0.000753 0.600001 0.001262
0.443333 0.256098 -0.006654 0.000390 0.600294 0.006666
0.570000 0.256098 -0.002802 0.006754 0.612014 0.007312
0.696667 0.256098 0.007154 0.013154 0.636954 0.014974
0.823333 0.256098 0.014318 -0.004022 0.601461 0.014872
0.950000 0.256098 0.009433 -0.007711 0.600026 0.012184
1.076667 0.256098 -0.016673 -0.005845 0.600010 0.017668
1.203333 0.256098 -0.028129 -0.005121 0.600310 0.028592
1.330000 0.256098 -0.028305 -0.005522 0.606229 0.028839
1.456667 0.256098 -0.028036 -0.001211 0.604426 0.028062
1.583333 0.256098 -0.008888 -0.007646 0.600123 0.011724
1.710000 0.256098 0.014928 -0.001942 0.600041 0.015054
1.836667 0.256098 0.022173 -0.001885 0.600012 0.022253
1.963333 0.256098 0.022511 -0.002242 0.600016 0.022623
2.090000 0.256098 0.020014 -0.001632 0.600508 0.020081
2.216667 0.256098 0.012831 0.000076 0.600359 0.012832
2.343333 0.256098 0.023563 0.000739 0.600125 0.023574
2.470000 0.256098 0.035294 -0.002182 0.600008 0.035361
2.596667 0.256098 0.028217 0.000013 0.600055 0.028217
2.723333 0.256098 0.032320 -0.000474 0.600004 0.032323
2.850000 0.256098 0.033622 -0.002584 0.600000 0.033721
2.976667 0.256098 0.029508 -0.002844 0.600000 0.029645
3.103333 0.256098 0.025248 0.000377 0.600958 0.025251
3.230000 0.256098 0.015195 0.007757 0.601489 0.017060
3.356667 0.256098 -0.007042 0.011150 0.600069 0.013188
3.483333 0.256098 -0.014790 0.000938 0.600322 0.014820
3.610000 0.256098 -0.002486 0.004628 0.600166 0.005253
3.736667 0.256098 0.000000 0.000000 0.000000 0.000000
0.063333 0.270732 0.000000 0.000000 0.000000 0.000000
0.190000 0.270732 -0.001197 0.000988 0.600001 0.001552
0.316667 0.270732 -0.000907 0.000045 0.600000 0.000908
0.443333 0.270732 -0.008730 -0.000068 0.600022 0.008730
0.570000 0.270732 -0.003020 0.005795 0.601103 0.006535