TITLE="(Vx,Vy)"
VARIABLES=X,Y,Vx,Vy,Vm,V
ZONE T="T-Dummy" I=30, J=41, F=POINT
0.063333 0.007317 0.000000 0.000000 0.000000 0.000000
0.190000 0.007317 0.000000 0.000000 0.000000 0.000000
0.316667 0.007317 0.000000 0.000000 0.000000 0.000000
0.443333 0.007317 0.000000 0.000000 0.000000 0.000000
0.570000 0.007317 0.000000 0.000000 0.000000 0.000000
0.696667 0.007317 0.000000 0.000000 0.000000 0.000000
0.823333 0.007317 0.000000 0.000000 0.000000 0.000000
0.950000 0.007317 0.000000 0.000000 0.000000 0.000000
1.076667 0.007317 0.000000 0.000000 0.000000 0.000000
1.203333 0.007317 0.000000 0.000000 0.000000 0.000000
1.330000 0.007317 0.000000 0.000000 0.000000 0.000000
1.456667 0.007317 0.000000 0.000000 0.000000 0.000000
1.583333 0.007317 0.000000 0.000000 0.000000 0.000000
1.710000 0.007317 0.000000 0.000000 0.000000 0.000000
1.836667 0.007317 0.000000 0.000000 0.000000 0.000000
1.963333 0.007317 0.000000 0.000000 0.000000 0.000000
2.090000 0.007317 0.000000 0.000000 0.000000 0.000000
2.216667 0.007317 0.000000 0.000000 0.000000 0.000000
2.343333 0.007317 0.000000 0.000000 0.000000 0.000000
2.470000 0.007317 0.000000 0.000000 0.000000 0.000000
2.596667 0.007317 0.000000 0.000000 0.000000 0.000000
2.723333 0.007317 0.000000 0.000000 0.000000 0.000000
2.850000 0.007317 0.000000 0.000000 0.000000 0.000000
2.976667 0.007317 0.000000 0.000000 0.000000 0.000000
3.103333 0.007317 0.000000 0.000000 0.000000 0.000000
3.230000 0.007317 0.000000 0.000000 0.000000 0.000000
3.356667 0.007317 0.000000 0.000000 0.000000 0.000000
3.483333 0.007317 0.000000 0.000000 0.000000 0.000000
3.610000 0.007317 0.000000 0.000000 0.000000 0.000000
3.736667 0.007317 0.000000 0.000000 0.000000 0.000000
0.063333 0.021951 0.000000 0.000000 0.000000 0.000000
0.190000 0.021951 0.000000 -0.000000 0.900000 0.000000
0.316667 0.021951 0.000000 -0.000000 0.900000 0.000000
0.443333 0.021951 0.000000 -0.000000 0.900000 0.000000
0.570000 0.021951 -0.000000 0.000000 0.900000 0.000000
0.696667 0.021951 -0.000000 -0.000000 0.900000 0.000000
0.823333 0.021951 -0.000000 0.000000 0.900000 0.000000
0.950000 0.021951 -0.000000 -0.000000 0.900000 0.000000
1.076667 0.021951 -0.000000 0.000000 0.900000 0.000000
1.203333 0.021951 -0.000000 -0.000000 0.900000 0.000000
1.330000 0.021951 -0.000000 0.000000 0.900000 0.000000
1.456667 0.021951 -0.000000 0.000000 0.900000 0.000000
1.583333 0.021951 -0.000000 -0.000000 0.900000 0.000000
1.710000 0.021951 -0.000000 0.000000 0.900000 0.000000
1.836667 0.021951 -0.000000 0.000000 0.900000 0.000000
1.963333 0.021951 -0.000000 -0.000000 0.900000 0.000000
2.090000 0.021951 -0.000000 -0.000000 0.900000 0.000000
2.216667 0.021951 -0.000000 0.000000 0.900000 0.000000
2.343333 0.021951 -0.000000 0.000000 0.900000 0.000000
2.470000 0.021951 -0.000000 -0.000000 0.900000 0.000000
2.596667 0.021951 -0.000000 0.000000 0.900000 0.000000
2.723333 0.021951 -0.000000 -0.000000 0.900000 0.000000
2.850000 0.021951 -0.000000 0.000000 0.900000 0.000000
2.976667 0.021951 -0.000000 -0.000000 0.900000 0.000000
3.103333 0.021951 -0.000000 -0.000000 0.900000 0.000000
3.230000 0.021951 0.000000 -0.000000 0.900000 0.000000
3.356667 0.021951 0.000000 -0.000000 0.900000 0.000000
3.483333 0.021951 0.000000 0.000000 0.900000 0.000000
3.610000 0.021951 0.000000 0.000000 0.900000 0.000000
3.736667 0.021951 0.000000 0.000000 0.000000 0.000000
0.063333 0.036585 0.000000 0.000000 0.000000 0.000000
0.190000 0.036585 0.000000 -0.000000 0.900000 0.000000
0.316667 0.036585 0.000000 -0.000000 0.900000 0.000000
0.443333 0.036585 0.000000 -0.000000 0.900000 0.000000
0.570000 0.036585 -0.000000 0.000000 0.900000 0.000000
0.696667 0.036585 -0.000000 -0.000000 0.900000 0.000000
0.823333 0.036585 -0.000000 0.000000 0.900000 0.000000
0.950000 0.036585 -0.000000 -0.000000 0.900000 0.000000
1.076667 0.036585 -0.000000 0.000000 0.900000 0.000000
1.203333 0.036585 -0.000000 -0.000000 0.900000 0.000000
1.330000 0.036585 -0.000000 0.000000 0.900000 0.000000
1.456667 0.036585 -0.000000 0.000000 0.900000 0.000000
1.583333 0.036585 -0.000000 -0.000000 0.900000 0.000000
1.710000 0.036585 -0.000000 0.000000 0.900000 0.000000
1.836667 0.036585 -0.000000 0.000000 0.900000 0.000000
1.963333 0.036585 -0.000000 -0.000000 0.900000 0.000000
2.090000 0.036585 -0.000000 -0.000000 0.900000 0.000000
2.216667 0.036585 -0.000000 0.000000 0.900000 0.000000
2.343333 0.036585 -0.000000 0.000000 0.900000 0.000000
2.470000 0.036585 -0.000000 -0.000000 0.900000 0.000000
2.596667 0.036585 0.000000 0.000000 0.900000 0.000000
2.723333 0.036585 0.000000 -0.000000 0.900000 0.000000
2.850000 0.036585 0.000000 0.000000 0.900000 0.000000
2.976667 0.036585 -0.000000 0.000000 0.900000 0.000000
3.103333 0.036585 -0.000000 -0.000000 0.900000 0.000000
3.230000 0.036585 0.000000 -0.000000 0.900000 0.000000
3.356667 0.036585 0.000000 -0.000000 0.900000 0.000000
3.483333 0.036585 0.000000 0.000000 0.900000 0.000000
3.610000 0.036585 0.000000 0.000000 0.900000 0.000000
3.736667 0.036585 0.000000 0.000000 0.000000 0.000000
0.063333 0.051220 0.000000 0.000000 0.000000 0.000000
0.190000 0.051220 0.000000 -0.000000 0.900000 0.000000
0.316667 0.051220 0.000000 -0.000000 0.900000 0.000000
0.443333 0.051220 0.000000 -0.000000 0.900000 0.000000
0.570000 0.051220 -0.000000 0.000000 0.900000 0.000000
0.696667 0.051220 -0.000000 -0.000000 0.900000 0.000000
0.823333 0.051220 -0.000000 -0.000000 0.900000 0.000000
0.950000 0.051220 -0.000000 -0.000000 0.900000 0.000000
1.076667 0.051220 -0.000000 0.000000 0.900000 0.000000
1.203333 0.051220 -0.000000 -0.000000 0.900000 0.000000
1.330000 0.051220 -0.000000 0.000000 0.900000 0.000000
1.456667 0.051220 -0.000000 0.000000 0.900000 0.000000
1.583333 0.051220 -0.000000 -0.000000 0.900000 0.000000
1.710000 0.051220 -0.000000 0.000000 0.900000 0.000000
1.836667 0.051220 -0.000000 0.000000 0.900000 0.000000
1.963333 0.051220 -0.000000 -0.000000 0.900000 0.000000
2.090000 0.051220 -0.000000 -0.000000 0.900000 0.000000
2.216667 0.051220 -0.000000 0.000000 0.900000 0.000000
2.343333 0.051220 -0.000000 0.000000 0.900000 0.000000
2.470000 0.051220 0.000000 -0.000000 0.900000 0.000000
2.596667 0.051220 0.000000 0.000000 0.900000 0.000000
2.723333 0.051220 0.000000 -0.000000 0.900000 0.000000
2.850000 0.051220 0.000000 0.000000 0.900000 0.000000
2.976667 0.051220 0.000000 0.000000 0.900000 0.000000
3.103333 0.051220 -0.000000 -0.000000 0.900000 0.000000
3.230000 0.051220 0.000000 -0.000000 0.900000 0.000000
3.356667 0.051220 0.000000 -0.000000 0.900000 0.000000
3.483333 0.051220 0.000000 0.000000 0.900000 0.000000
3.610000 0.051220 0.000000 0.000000 0.900000 0.000000
3.736667 0.051220 0.000000 0.000000 0.000000 0.000000
0.063333 0.065854 0.000000 0.000000 0.000000 0.000000
0.190000 0.065854 0.000000 -0.000000 0.900000 0.000000
0.316667 0.065854 0.000000 -0.000000 0.900000 0.000000
0.443333 0.065854 0.000000 -0.000000 0.900000 0.000000
0.570000 0.065854 -0.000000 0.000000 0.900000 0.000000
0.696667 0.065854 -0.000000 -0.000000 0.900000 0.000000
0.823333 0.065854 -0.000000 -0.000000 0.900000 0.000000
0.950000 0.065854 -0.000000 -0.000000 0.900000 0.000000
1.076667 0.065854 -0.000000 -0.000000 0.900000 0.000000
1.203333 0.065854 -0.000000 -0.000000 0.900000 0.000000
1.330000 0.065854 -0.000000 0.000000 0.900000 0.000000
1.456667 0.065854 -0.000000 0.000000 0.900000 0.000000
1.583333 0.065854 -0.000000 -0.000000 0.900000 0.000000
1.710000 0.065854 -0.000000 0.000000 0.900000 0.000000
1.836667 0.065854 -0.000000 -0.000000 0.900000 0.000000
1.963333 0.065854 -0.000000 -0.000000 0.900000 0.000000
2.090000 0.065854 -0.000000 -0.000000 0.900000 0.000000
2.216667 0.065854 0.000000 0.000000 0.900000 0.000000
2.343333 0.065854 -0.000000 0.000000 0.900000 0.000000
2.470000 0.065854 0.000000 -0.000000 0.900000 0.000000
2.596667 0.065854 0.000000 0.000000 0.900000 0.000000
2.723333 0.065854 0.000000 -0.000000 0.900000 0.000000
2.850000 0.065854 0.000000 0.000000 0.900000 0.000000
2.976667 0.065854 0.000000 0.000000 0.900000 0.000000
3.103333 0.065854 -0.000000 -0.000000 0.900000 0.000000
3.230000 0.065854 0.000000 -0.000000 0.900000 0.000000
3.356667 0.065854 0.000000 -0.000000 0.900000 0.000000
3.483333 0.065854 0.000000 0.000000 0.900000 0.000000
3.610000 0.065854 0.000000 0.000000 0.900000 0.000000
3.736667 0.065854 0.000000 0.000000 0.000000 0.000000
0.063333 0.080488 0.000000 0.000000 0.000000 0.000000
0.190000 0.080488 0.000000 -0.000000 0.900000 0.000000
0.316667 0.080488 0.000000 -0.000000 0.900000 0.000000
0.443333 0.080488 0.000000 -0.000000 0.900000 0.000000
0.570000 0.080488 -0.000000 0.000000 0.900000 0.000000
0.696667 0.080488 -0.000000 -0.000000 0.900000 0.000000
0.823333 0.080488 -0.000000 -0.000000 0.900000 0.000000
0.950000 0.080488 -0.000000 -0.000000 0.900000 0.000000
1.076667 0.080488 -0.000000 -0.000000 0.900000 0.000000
1.203333 0.080488 -0.000000 -0.000000 0.900000 0.000000
1.330000 0.080488 -0.000000 0.000000 0.900000 0.000000
1.456667 0.080488 -0.000000 0.000000 0.900000 0.000000
1.583333 0.080488 -0.000000 -0.000000 0.900000 0.000000
1.710000 0.080488 -0.000000 0.000000 0.900000 0.000000
1.836667 0.080488 -0.000000 -0.000000 0.900000 0.000000
1.963333 0.080488 -0.000000 -0.000000 0.900000 0.000000
2.090000 0.080488 -0.000000 -0.000000 0.900000 0.000000
2.216667 0.080488 -0.000000 0.000000 0.900000 0.000000
2.343333 0.080488 -0.000000 0.000000 0.900000 0.000000
2.470000 0.080488 -0.000000 -0.000000 0.900000 0.000000
2.596667 0.080488 0.000000 -0.000000 0.900000 0.000000
2.723333 0.080488 -0.000000 0.000000 0.900000 0.000000
2.850000 0.080488 0.000000 0.000000 0.900000 0.000000
2.976667 0.080488 0.000000 0.000000 0.900000 0.000000
3.103333 0.080488 0.000000 -0.000000 0.900000 0.000000
3.230000 0.080488 0.000000 -0.000000 0.900000 0.000000
3.356667 0.080488 0.000000 -0.000000 0.900000 0.000000
3.483333 0.080488 0.000000 0.000000 0.900000 0.000000
3.610000 0.080488 0.000000 0.000000 0.900000 0.000000
3.736667 0.080488 0.000000 0.000000 0.000000 0.000000
0.063333 0.095122 0.000000 0.000000 0.000000 0.000000
0.190000 0.095122 -0.000000 -0.000000 0.900000 0.000000
0.316667 0.095122 -0.000000 -0.000000 0.900000 0.000000
0.443333 0.095122 -0.000000 -0.000000 0.900000 0.000000
0.570000 0.095122 -0.000000 0.000000 0.900000 0.000000
0.696667 0.095122 -0.000000 -0.000000 0.900000 0.000000
0.823333 0.095122 -0.000000 -0.000000 0.900000 0.000000
0.950000 0.095122 -0.000000 -0.000000 0.900000 0.000000
1.076667 0.095122 -0.000000 -0.000000 0.900000 0.000000
1.203333 0.095122 -0.000000 -0.000000 0.900000 0.000000
1.330000 0.095122 -0.000000 0.000000 0.900000 0.000000
1.456667 0.095122 -0.000000 0.000000 0.900000 0.000000
1.583333 0.095122 -0.000000 -0.000000 0.900000 0.000000
1.710000 0.095122 -0.000000 0.000000 0.900000 0.000000
1.836667 0.095122 -0.000000 0.000000 0.900000 0.000000
1.963333 0.095122 -0.000000 -0.000000 0.900000 0.000000
2.090000 0.095122 -0.000000 -0.000000 0.900000 0.000000
2.216667 0.095122 -0.000000 0.000000 0.900000 0.000000
2.343333 0.095122 -0.000000 0.000000 0.900000 0.000000
2.470000 0.095122 -0.000000 -0.000000 0.900000 0.000000
2.596667 0.095122 -0.000000 -0.000000 0.900000 0.000000
2.723333 0.095122 -0.000000 0.000000 0.900000 0.000000
2.850000 0.095122 0.000000 0.000000 0.900000 0.000000
2.976667 0.095122 0.000000 0.000000 0.900000 0.000000
3.103333 0.095122 0.000000 0.000000 0.900000 0.000000
3.230000 0.095122 0.000000 -0.000000 0.900000 0.000000
3.356667 0.095122 0.000000 -0.000000 0.900000 0.000000
3.483333 0.095122 0.000000 0.000000 0.900000 0.000000
3.610000 0.095122 0.000000 0.000000 0.900000 0.000000
3.736667 0.095122 0.000000 0.000000 0.000000 0.000000
0.063333 0.109756 0.000000 0.000000 0.000000 0.000000
0.190000 0.109756 -0.000000 -0.000000 0.900000 0.000000
0.316667 0.109756 -0.000000 -0.000000 0.900000 0.000000
0.443333 0.109756 -0.000000 -0.000000 0.900000 0.000000
0.570000 0.109756 -0.000000 0.000000 0.900000 0.000000
0.696667 0.109756 -0.000000 -0.000000 0.900000 0.000000
0.823333 0.109756 -0.000000 0.000000 0.900000 0.000000
0.950000 0.109756 -0.000000 0.000000 0.900000 0.000000
1.076667 0.109756 -0.000000 -0.000000 0.900000 0.000000
1.203333 0.109756 -0.000000 -0.000000 0.900000 0.000000
1.330000 0.109756 -0.000000 0.000000 0.900000 0.000000
1.456667 0.109756 -0.000000 0.000000 0.900000 0.000000
1.583333 0.109756 -0.000000 -0.000000 0.900000 0.000000
1.710000 0.109756 -0.000000 0.000000 0.900000 0.000000
1.836667 0.109756 -0.000000 0.000000 0.900000 0.000000
1.963333 0.109756 -0.000000 -0.000000 0.900000 0.000000
2.090000 0.109756 -0.000000 -0.000000 0.900000 0.000000
2.216667 0.109756 -0.000000 0.000000 0.900000 0.000000
2.343333 0.109756 -0.000000 0.000000 0.900000 0.000000
2.470000 0.109756 -0.000000 -0.000000 0.900000 0.000000
2.596667 0.109756 -0.000000 -0.000000 0.900000 0.000000
2.723333 0.109756 -0.000000 0.000000 0.900000 0.000000
2.850000 0.109756 0.000000 0.000000 0.900000 0.000000
2.976667 0.109756 0.000000 0.000000 0.900000 0.000000
3.103333 0.109756 0.000000 0.000000 0.900000 0.000000
3.230000 0.109756 -0.000000 -0.000000 0.900000 0.000000
3.356667 0.109756 0.000000 -0.000000 0.900000 0.000000
3.483333 0.109756 0.000000 0.000000 0.900000 0.000000
3.610000 0.109756 0.000000 0.000000 0.900000 0.000000
3.736667 0.109756 0.000000 0.000000 0.000000 0.000000
0.063333 0.124390 0.000000 0.000000 0.000000 0.000000
0.190000 0.124390 -0.000000 -0.000000 0.900000 0.000000
0.316667 0.124390 -0.000000 -0.000000 0.900000 0.000000
0.443333 0.124390 -0.000000 -0.000000 0.900000 0.000000
0.570000 0.124390 -0.000000 0.000000 0.900000 0.000000
0.696667 0.124390 -0.000000 -0.000000 0.900000 0.000000
0.823333 0.124390 -0.000000 0.000000 0.900000 0.000000
0.950000 0.124390 -0.000000 0.000000 0.900000 0.000000
1.076667 0.124390 -0.000000 -0.000000 0.900000 0.000000
1.203333 0.124390 -0.000000 -0.000000 0.900000 0.000000
1.330000 0.124390 -0.000000 0.000000 0.900000 0.000000
1.456667 0.124390 -0.000000 0.000000 0.900000 0.000000
1.583333 0.124390 -0.000000 -0.000000 0.900000 0.000000
1.710000 0.124390 -0.000000 0.000000 0.900000 0.000000
1.836667 0.124390 -0.000000 0.000000 0.900000 0.000000
1.963333 0.124390 -0.000000 -0.000000 0.900000 0.000000
2.090000 0.124390 -0.000000 -0.000000 0.900000 0.000000
2.216667 0.124390 -0.000000 0.000000 0.900000 0.000000
2.343333 0.124390 -0.000000 0.000000 0.900000 0.000000
2.470000 0.124390 -0.000000 0.000000 0.900000 0.000000
2.596667 0.124390 -0.000000 -0.000000 0.900000 0.000000
2.723333 0.124390 -0.000000 0.000000 0.900000 0.000000
2.850000 0.124390 0.000000 0.000000 0.900000 0.000000
2.976667 0.124390 0.000000 0.000000 0.900000 0.000000
3.103333 0.124390 0.000000 0.000000 0.900000 0.000000
3.230000 0.124390 -0.000000 -0.000000 0.900000 0.000000
3.356667 0.124390 -0.000000 -0.000000 0.900000 0.000000
3.483333 0.124390 -0.000000 0.000000 0.900000 0.000000
3.610000 0.124390 0.000000 0.000000 0.900000 0.000000
3.736667 0.124390 0.000000 0.000000 0.000000 0.000000
0.063333 0.139024 0.000000 0.000000 0.000000 0.000000
0.190000 0.139024 -0.000000 -0.000000 0.900000 0.000000
0.316667 0.139024 -0.000000 -0.000000 0.900000 0.000000
0.443333 0.139024 -0.000000 -0.000000 0.900000 0.000000
0.570000 0.139024 -0.000000 0.000000 0.900000 0.000000
0.696667 0.139024 -0.000000 -0.000000 0.900000 0.000000
0.823333 0.139024 -0.000000 0.000000 0.900000 0.000000
0.950000 0.139024 -0.000000 0.000000 0.900000 0.000000
1.076667 0.139024 -0.000000 -0.000000 0.900000 0.000000
1.203333 0.139024 -0.000000 0.000000 0.900000 0.000000
1.330000 0.139024 -0.000000 0.000000 0.900000 0.000000
1.456667 0.139024 -0.000000 0.000000 0.900000 0.000000
1.583333 0.139024 -0.000000 -0.000000 0.900000 0.000000
1.710000 0.139024 -0.000000 0.000000 0.900000 0.000000
1.836667 0.139024 -0.000000 -0.000000 0.900000 0.000000
1.963333 0.139024 -0.000000 -0.000000 0.900000 0.000000
2.090000 0.139024 -0.000000 -0.000000 0.900000 0.000000
2.216667 0.139024 0.000000 0.000000 0.900000 0.000000
2.343333 0.139024 -0.000000 0.000000 0.900000 0.000000
2.470000 0.139024 -0.000000 0.000000 0.900000 0.000000
2.596667 0.139024 -0.000000 -0.000000 0.900000 0.000000
2.723333 0.139024 -0.000000 0.000000 0.900000 0.000000
2.850000 0.139024 0.000000 0.000000 0.900000 0.000000
2.976667 0.139024 0.000000 0.000000 0.900000 0.000000
3.103333 0.139024 0.000000 -0.000000 0.900000 0.000000
3.230000 0.139024 -0.000000 -0.000000 0.899997 0.000000
3.356667 0.139024 -0.000000 -0.000000 0.900000 0.000000
3.483333 0.139024 -0.000000 0.000000 0.900000 0.000000
3.610000 0.139024 0.000000 0.000000 0.900000 0.000000
3.736667 0.139024 0.000000 0.000000 0.000000 0.000000
0.063333 0.153659 0.000000 0.000000 0.000000 0.000000
0.190000 0.153659 -0.000000 -0.000000 0.900000 0.000000
0.316667 0.153659 -0.000000 -0.000000 0.900000 0.000000
0.443333 0.153659 -0.000000 -0.000000 0.899998 0.000000
0.570000 0.153659 -0.000000 0.000000 0.900000 0.000000
0.696667 0.153659 -0.000000 0.000000 0.900000 0.000000
0.823333 0.153659 -0.000000 0.000000 0.900000 0.000000
0.950000 0.153659 -0.000000 0.000000 0.900000 0.000000
1.076667 0.153659 -0.000000 -0.000000 0.899999 0.000000
1.203333 0.153659 -0.000000 0.000000 0.900000 0.000000
1.330000 0.153659 -0.000000 0.000000 0.900000 0.000000
1.456667 0.153659 -0.000000 -0.000000 0.899998 0.000000
1.583333 0.153659 -0.000000 -0.000000 0.900000 0.000000
1.710000 0.153659 -0.000000 -0.000000 0.900000 0.000000
1.836667 0.153659 -0.000000 -0.000000 0.899999 0.000000
1.963333 0.153659 -0.000000 -0.000000 0.900000 0.000000
2.090000 0.153659 -0.000000 -0.000000 0.900000 0.000000
2.216667 0.153659 0.000000 0.000000 0.900000 0.000000
2.343333 0.153659 -0.000000 0.000000 0.900000 0.000000
2.470000 0.153659 -0.000000 -0.000000 0.900000 0.000000
2.596667 0.153659 -0.000000 -0.000000 0.900000 0.000000
2.723333 0.153659 -0.000000 0.000000 0.900000 0.000000
2.850000 0.153659 0.000000 0.000000 0.900000 0.000000
2.976667 0.153659 0.000000 0.000000 0.900000 0.000000
3.103333 0.153659 0.000000 -0.000000 0.899996 0.000000
3.230000 0.153659 -0.000001 -0.000001 0.899975 0.000001
3.356667 0.153659 -0.000000 -0.000000 0.899999 0.000000
3.483333 0.153659 -0.000000 0.000000 0.900000 0.000000
3.610000 0.153659 0.000000 0.000000 0.900000 0.000000
3.736667 0.153659 0.000000 0.000000 0.000000 0.000000
0.063333 0.168293 0.000000 0.000000 0.000000 0.000000
0.190000 0.168293 -0.000000 -0.000000 0.900000 0.000000
0.316667 0.168293 -0.000000 -0.000000 0.899999 0.000000
0.443333 0.168293 -0.000001 -0.000001 0.899975 0.000002
0.570000 0.168293 -0.000000 0.000000 0.900000 0.000000
0.696667 0.168293 -0.000000 0.000000 0.899999 0.000000
0.823333 0.168293 -0.000000 0.000000 0.900000 0.000000
0.950000 0.168293 -0.000000 0.000000 0.900000 0.000000
1.076667 0.168293 -0.000001 -0.000000 0.899987 0.000001
1.203333 0.168293 -0.000000 0.000000 0.900000 0.000000
1.330000 0.168293 -0.000000 0.000000 0.899996 0.000000
1.456667 0.168293 -0.000012 -0.000001 0.899918 0.000012
1.583333 0.168293 -0.000000 -0.000000 0.899998 0.000000
1.710000 0.168293 -0.000000 -0.000000 0.899999 0.000000
1.836667 0.168293 -0.000001 -0.000000 0.899984 0.000001
1.963333 0.168293 -0.000000 -0.000000 0.899998 0.000000
2.090000 0.168293 -0.000000 -0.000000 0.899999 0.000000
2.216667 0.168293 -0.000000 0.000000 0.900000 0.000000
2.343333 0.168293 -0.000000 0.000000 0.900000 0.000000
2.470000 0.168293 -0.000000 -0.000000 0.900000 0.000000
2.596667 0.168293 -0.000000 -0.000000 0.900000 0.000000
2.723333 0.168293 -0.000000 0.000000 0.900000 0.000000
2.850000 0.168293 0.000000 0.000000 0.900000 0.000000
2.976667 0.168293 0.000000 0.000000 0.900000 0.000000
3.103333 0.168293 0.000001 -0.000000 0.899971 0.000001
3.230000 0.168293 -0.000005 -0.000008 0.899793 0.000010
3.356667 0.168293 -0.000001 -0.000000 0.899989 0.000001
3.483333 0.168293 -0.000000 0.000000 0.900000 0.000000
3.610000 0.168293 -0.000000 0.000000 0.900000 0.000000
3.736667 0.168293 0.000000 0.000000 0.000000 0.000000
0.063333 0.182927 0.000000 0.000000 0.000000 0.000000
0.190000 0.182927 -0.000000 -0.000000 0.899999 0.000000
0.316667 0.182927 -0.000001 -0.000000 0.899982 0.000001
0.443333 0.182927 -0.000018 -0.000006 0.899741 0.000019
0.570000 0.182927 -0.000000 0.000000 0.900000 0.000000
0.696667 0.182927 -0.000000 0.000000 0.899991 0.000000
0.823333 0.182927 -0.000000 0.000000 0.900000 0.000000
0.950000 0.182927 -0.000000 0.000000 0.899998 0.000000
1.076667 0.182927 -0.000007 -0.000003 0.899842 0.000008
1.203333 0.182927 -0.000000 0.000000 0.899996 0.000000
1.330000 0.182927 -0.000007 0.000001 0.899941 0.000007
1.456667 0.182927 -0.000180 -0.000021 0.898743 0.000181
1.583333 0.182927 -0.000009 -0.000001 0.899930 0.000009
1.710000 0.182927 -0.000003 -0.000000 0.899963 0.000003
1.836667 0.182927 -0.000014 -0.000003 0.899749 0.000014
1.963333 0.182927 -0.000003 -0.000001 0.899939 0.000003
2.090000 0.182927 -0.000001 -0.000000 0.899978 0.000001
2.216667 0.182927 -0.000000 -0.000000 0.899999 0.000000
2.343333 0.182927 -0.000000 0.000000 0.900000 0.000000
2.470000 0.182927 -0.000000 -0.000000 0.900000 0.000000
2.596667 0.182927 -0.000000 -0.000000 0.899999 0.000000
2.723333 0.182927 -0.000000 0.000000 0.900000 0.000000
2.850000 0.182927 0.000000 0.000000 0.900000 0.000000
2.976667 0.182927 0.000000 0.000000 0.900000 0.000000
3.103333 0.182927 0.000009 -0.000001 0.899777 0.000009
3.230000 0.182927 -0.000043 -0.000052 0.898461 0.000068
3.356667 0.182927 -0.000008 -0.000002 0.899876 0.000008
3.483333 0.182927 -0.000000 0.000000 0.900000 0.000000
3.610000 0.182927 -0.000000 0.000000 0.900000 0.000000
3.736667 0.182927 0.000000 0.000000 0.000000 0.000000
0.063333 0.197561 0.000000 0.000000 0.000000 0.000000
0.190000 0.197561 -0.000001 -0.000000 0.899959 0.000001
0.316667 0.197561 -0.000021 -0.000002 0.899518 0.000021
0.443333 0.197561 -0.000207 -0.000041 0.897467 0.000211
0.570000 0.197561 -0.000000 0.000000 0.899999 0.000000
0.696667 0.197561 -0.000002 0.000001 0.899898 0.000002
0.823333 0.197561 0.000000 0.000000 0.899994 0.000000
0.950000 0.197561 -0.000003 0.000000 0.899842 0.000003
1.076667 0.197561 -0.000076 -0.000027 0.898068 0.000080
1.203333 0.197561 -0.000003 0.000000 0.899949 0.000003
1.330000 0.197561 -0.000070 0.000014 0.899289 0.000071
1.456667 0.197561 -0.001450 -0.000241 0.888383 0.001470
1.583333 0.197561 -0.000194 -0.000015 0.898487 0.000194
1.710000 0.197561 -0.000100 -0.000008 0.898734 0.000100
1.836667 0.197561 -0.000159 -0.000039 0.896660 0.000164
1.963333 0.197561 -0.000071 -0.000018 0.898415 0.000074
2.090000 0.197561 -0.000025 -0.000008 0.899085 0.000026
2.216667 0.197561 -0.000001 -0.000000 0.899910 0.000001
2.343333 0.197561 -0.000000 0.000000 0.899956 0.000000
2.470000 0.197561 -0.000000 0.000000 0.899983 0.000000
2.596667 0.197561 -0.000001 -0.000000 0.899844 0.000001
2.723333 0.197561 -0.000000 0.000000 0.899924 0.000000
2.850000 0.197561 0.000000 0.000000 0.899995 0.000000
2.976667 0.197561 0.000000 0.000000 0.900000 0.000000
3.103333 0.197561 0.000084 -0.000005 0.898305 0.000084
3.230000 0.197561 -0.000268 -0.000274 0.889844 0.000383
3.356667 0.197561 -0.000120 -0.000016 0.898432 0.000121
3.483333 0.197561 -0.000000 0.000000 0.900000 0.000000
3.610000 0.197561 -0.000000 0.000000 0.899983 0.000000
3.736667 0.197561 0.000000 0.000000 0.000000 0.000000
0.063333 0.212195 0.000000 0.000000 0.000000 0.000000
0.190000 0.212195 -0.000051 -0.000008 0.897810 0.000052
0.316667 0.212195 -0.000558 -0.000040 0.889543 0.000559
0.443333 0.212195 -0.002234 -0.000208 0.876193 0.002243
0.570000 0.212195 -0.000002 0.000002 0.899971 0.000003
0.696667 0.212195 -0.000010 0.000021 0.898551 0.000024
0.823333 0.212195 0.000009 0.000006 0.899311 0.000011
0.950000 0.212195 -0.000180 -0.000013 0.890819 0.000180
1.076667 0.212195 -0.000667 -0.000268 0.876546 0.000719
1.203333 0.212195 -0.000050 -0.000002 0.898717 0.000050
1.330000 0.212195 -0.000469 0.000062 0.894293 0.000473
1.456667 0.212195 -0.007050 -0.001518 0.833609 0.007211
1.583333 0.212195 -0.002701 -0.000183 0.879286 0.002707
1.710000 0.212195 -0.001741 -0.000207 0.879128 0.001753
1.836667 0.212195 -0.001476 -0.000470 0.863513 0.001549
1.963333 0.212195 -0.000919 -0.000336 0.872736 0.000978
2.090000 0.212195 -0.000342 -0.000201 0.878328 0.000396
2.216667 0.212195 0.000008 -0.000021 0.894157 0.000023
2.343333 0.212195 -0.000015 -0.000003 0.896630 0.000015
2.470000 0.212195 -0.000009 0.000001 0.898651 0.000009
2.596667 0.212195 -0.000022 -0.000001 0.892475 0.000022
2.723333 0.212195 0.000066 0.000027 0.891086 0.000072
2.850000 0.212195 0.000015 0.000008 0.898721 0.000017
2.976667 0.212195 0.000008 0.000003 0.899842 0.000009
3.103333 0.212195 0.000688 0.000014 0.886568 0.000688
3.230000 0.212195 -0.001742 -0.001052 0.840609 0.002035
3.356667 0.212195 -0.002113 -0.000152 0.876430 0.002119
3.483333 0.212195 -0.001242 0.000484 0.880792 0.001333
3.610000 0.212195 -0.000114 0.000673 0.861752 0.000682
3.736667 0.212195 0.000000 0.000000 0.000000 0.000000
0.063333 0.226829 0.000000 0.000000 0.000000 0.000000
0.190000 0.226829 -0.004130 -0.000313 0.655775 0.004142
0.316667 0.226829 -0.009852 -0.000611 0.675883 0.009871
0.443333 0.226829 -0.016793 -0.000383 0.687023 0.016797
0.570000 0.226829 -0.006480 0.004663 0.785120 0.007984
0.696667 0.226829 -0.000065 0.002953 0.725890 0.002954
0.823333 0.226829 0.005464 0.002025 0.718071 0.005827
0.950000 0.226829 -0.001544 -0.000398 0.700641 0.001595
1.076667 0.226829 -0.004076 -0.001827 0.706934 0.004467
1.203333 0.226829 -0.005674 -0.000315 0.716350 0.005683
1.330000 0.226829 -0.016263 0.000793 0.735369 0.016282
1.456667 0.226829 -0.026454 -0.005593 0.672006 0.027039
1.583333 0.226829 -0.027560 -0.001343 0.690676 0.027592
1.710000 0.226829 -0.018925 -0.003044 0.684930 0.019169
1.836667 0.226829 -0.005431 -0.003562 0.668512 0.006495
1.963333 0.226829 -0.002230 -0.003040 0.667399 0.003771
2.090000 0.226829 0.002140 -0.002534 0.662276 0.003317
2.216667 0.226829 0.006640 -0.001132 0.665942 0.006736
2.343333 0.226829 0.004390 -0.000499 0.657426 0.004418
2.470000 0.226829 0.003515 -0.000127 0.647912 0.003518
2.596667 0.226829 0.005479 0.000119 0.637029 0.005480
2.723333 0.226829 0.009957 -0.000019 0.629372 0.009957
2.850000 0.226829 0.011218 0.002800 0.642914 0.011562
2.976667 0.226829 0.017229 0.003531 0.682570 0.017587
3.103333 0.226829 0.017812 0.001615 0.642964 0.017885
3.230000 0.226829 -0.005981 -0.003427 0.600693 0.006893
3.356667 0.226829 -0.026409 0.000030 0.608338 0.026409
3.483333 0.226829 -0.017828 0.003421 0.667591 0.018153
3.610000 0.226829 -0.003010 0.004426 0.642925 0.005352
3.736667 0.226829 0.000000 0.000000 0.000000 0.000000
0.063333 0.241463 0.000000 0.000000 0.000000 0.000000
0.190000 0.241463 -0.002332 -0.000080 0.601967 0.002333
0.316667 0.241463 -0.008388 -0.000727 0.602469 0.008420
0.443333 0.241463 -0.014600 0.000702 0.602702 0.014617
0.570000 0.241463 -0.009347 0.006823 0.654575 0.011572
0.696667 0.241463 -0.000968 0.005397 0.618334 0.005483
0.823333 0.241463 0.011079 0.003699 0.614467 0.011680
0.950000 0.241463 -0.000414 -0.000229 0.600701 0.000474
1.076667 0.241463 -0.006233 -0.002168 0.600434 0.006599
1.203333 0.241463 -0.008716 -0.000441 0.605215 0.008727
1.330000 0.241463 -0.026361 0.001303 0.619316 0.026394
1.456667 0.241463 -0.032633 -0.006725 0.601447 0.033319
1.583333 0.241463 -0.039404 -0.001001 0.610320 0.039416
1.710000 0.241463 -0.027732 -0.005880 0.602237 0.028348
1.836667 0.241463 -0.005128 -0.005878 0.600024 0.007800
1.963333 0.241463 -0.000464 -0.004105 0.600077 0.004131
2.090000 0.241463 0.004630 -0.003800 0.600163 0.005989
2.216667 0.241463 0.010498 -0.001686 0.600515 0.010632
2.343333 0.241463 0.006207 -0.000651 0.600296 0.006241
2.470000 0.241463 0.004564 -0.000752 0.600056 0.004625
2.596667 0.241463 0.006934 0.000254 0.600782 0.006938
2.723333 0.241463 0.007472 -0.001019 0.600258 0.007541
2.850000 0.241463 0.011923 0.003989 0.604101 0.012572
2.976667 0.241463 0.025632 0.003844 0.610118 0.025919
3.103333 0.241463 0.022010 0.003360 0.604688 0.022265
3.230000 0.241463 -0.004418 -0.003614 0.600071 0.005708
3.356667 0.241463 -0.025097 0.002218 0.600565 0.025195
3.483333 0.241463 -0.022190 0.001882 0.605642 0.022270
3.610000 0.241463 -0.004988 0.004501 0.603445 0.006719
3.736667 0.241463 0.000000 0.000000 0.000000 0.000000
0.063333 0.256098 0.000000 0.000000 0.000000 0.000000
0.190000 0.256098 -0.002716 0.000076 0.600036 0.002717
0.316667 0.256098 -0.009125 -0.000809 0.600051 0.009161
0.443333 0.256098 -0.013044 0.001107 0.600257 0.013091
0.570000 0.256098 -0.011459 0.005901 0.608863 0.012890
0.696667 0.256098 -0.004264 0.006139 0.601741 0.007474
0.823333 0.256098 0.009064 0.004426 0.601196 0.010086
0.950000 0.256098 -0.003372 0.000235 0.600051 0.003380
1.076667 0.256098 -0.008873 -0.001557 0.600041 0.009008
1.203333 0.256098 -0.011659 -0.000795 0.600162 0.011686
1.330000 0.256098 -0.026347 0.001405 0.601579 0.026385
1.456667 0.256098 -0.029414 -0.005642 0.600073 0.029951
1.583333 0.256098 -0.040637 -0.000267 0.601858 0.040638
1.710000 0.256098 -0.027490 -0.008058 0.600033 0.028646
1.836667 0.256098 -0.006379 -0.007014 0.600000 0.009481
1.963333 0.256098 -0.002702 -0.004459 0.600000 0.005214
2.090000 0.256098 0.002528 -0.004339 0.600000 0.005021
2.216667 0.256098 0.006560 -0.001819 0.600005 0.006807
2.343333 0.256098 0.005094 -0.000768 0.600008 0.005151
2.470000 0.256098 0.003997 -0.001203 0.600000 0.004174
2.596667 0.256098 0.005968 0.000076 0.600030 0.005969
2.723333 0.256098 0.003888 -0.001193 0.600005 0.004067
2.850000 0.256098 0.009475 0.003471 0.600310 0.010090
2.976667 0.256098 0.029206 0.003590 0.600744 0.029425
3.103333 0.256098 0.021591 0.005177 0.600368 0.022203
3.230000 0.256098 -0.006267 -0.004642 0.600003 0.007799
3.356667 0.256098 -0.024895 0.004385 0.600032 0.025278
3.483333 0.256098 -0.022839 -0.000088 0.600164 0.022839
3.610000 0.256098 -0.005436 0.003701 0.600158 0.006576
3.736667 0.256098 0.000000 0.000000 0.000000 0.000000
0.063333 0.270732 0.000000 0.000000 0.000000 0.000000
0.190000 0.270732 -0.003158 0.000358 0.600000 0.003179