TITLE="(Vx,Vy)"
VARIABLES=X,Y,Vx,Vy,Vm,V
ZONE T="T-Dummy" I=30, J=41, F=POINT
0.063333 0.007317 0.000000 0.000000 0.000000 0.000000
0.190000 0.007317 0.000000 0.000000 0.000000 0.000000
0.316667 0.007317 0.000000 0.000000 0.000000 0.000000
0.443333 0.007317 0.000000 0.000000 0.000000 0.000000
0.570000 0.007317 0.000000 0.000000 0.000000 0.000000
0.696667 0.007317 0.000000 0.000000 0.000000 0.000000
0.823333 0.007317 0.000000 0.000000 0.000000 0.000000
0.950000 0.007317 0.000000 0.000000 0.000000 0.000000
1.076667 0.007317 0.000000 0.000000 0.000000 0.000000
1.203333 0.007317 0.000000 0.000000 0.000000 0.000000
1.330000 0.007317 0.000000 0.000000 0.000000 0.000000
1.456667 0.007317 0.000000 0.000000 0.000000 0.000000
1.583333 0.007317 0.000000 0.000000 0.000000 0.000000
1.710000 0.007317 0.000000 0.000000 0.000000 0.000000
1.836667 0.007317 0.000000 0.000000 0.000000 0.000000
1.963333 0.007317 0.000000 0.000000 0.000000 0.000000
2.090000 0.007317 0.000000 0.000000 0.000000 0.000000
2.216667 0.007317 0.000000 0.000000 0.000000 0.000000
2.343333 0.007317 0.000000 0.000000 0.000000 0.000000
2.470000 0.007317 0.000000 0.000000 0.000000 0.000000
2.596667 0.007317 0.000000 0.000000 0.000000 0.000000
2.723333 0.007317 0.000000 0.000000 0.000000 0.000000
2.850000 0.007317 0.000000 0.000000 0.000000 0.000000
2.976667 0.007317 0.000000 0.000000 0.000000 0.000000
3.103333 0.007317 0.000000 0.000000 0.000000 0.000000
3.230000 0.007317 0.000000 0.000000 0.000000 0.000000
3.356667 0.007317 0.000000 0.000000 0.000000 0.000000
3.483333 0.007317 0.000000 0.000000 0.000000 0.000000
3.610000 0.007317 0.000000 0.000000 0.000000 0.000000
3.736667 0.007317 0.000000 0.000000 0.000000 0.000000
0.063333 0.021951 0.000000 0.000000 0.000000 0.000000
0.190000 0.021951 0.000000 -0.000000 0.900000 0.000000
0.316667 0.021951 0.000000 -0.000000 0.900000 0.000000
0.443333 0.021951 0.000000 0.000000 0.900000 0.000000
0.570000 0.021951 -0.000000 0.000000 0.900000 0.000000
0.696667 0.021951 -0.000000 -0.000000 0.900000 0.000000
0.823333 0.021951 -0.000000 0.000000 0.900000 0.000000
0.950000 0.021951 -0.000000 -0.000000 0.900000 0.000000
1.076667 0.021951 0.000000 -0.000000 0.900000 0.000000
1.203333 0.021951 0.000000 0.000000 0.900000 0.000000
1.330000 0.021951 0.000000 -0.000000 0.900000 0.000000
1.456667 0.021951 0.000000 0.000000 0.900000 0.000000
1.583333 0.021951 0.000000 -0.000000 0.900000 0.000000
1.710000 0.021951 0.000000 0.000000 0.900000 0.000000
1.836667 0.021951 -0.000000 -0.000000 0.900000 0.000000
1.963333 0.021951 0.000000 -0.000000 0.900000 0.000000
2.090000 0.021951 0.000000 -0.000000 0.900000 0.000000
2.216667 0.021951 0.000000 -0.000000 0.900000 0.000000
2.343333 0.021951 0.000000 -0.000000 0.900000 0.000000
2.470000 0.021951 0.000000 0.000000 0.900000 0.000000
2.596667 0.021951 0.000000 -0.000000 0.900000 0.000000
2.723333 0.021951 0.000000 0.000000 0.900000 0.000000
2.850000 0.021951 0.000000 -0.000000 0.900000 0.000000
2.976667 0.021951 0.000000 0.000000 0.900000 0.000000
3.103333 0.021951 0.000000 -0.000000 0.900000 0.000000
3.230000 0.021951 0.000000 0.000000 0.900000 0.000000
3.356667 0.021951 0.000000 -0.000000 0.900000 0.000000
3.483333 0.021951 0.000000 0.000000 0.900000 0.000000
3.610000 0.021951 0.000000 0.000000 0.900000 0.000000
3.736667 0.021951 0.000000 0.000000 0.000000 0.000000
0.063333 0.036585 0.000000 0.000000 0.000000 0.000000
0.190000 0.036585 0.000000 -0.000000 0.900000 0.000000
0.316667 0.036585 0.000000 -0.000000 0.900000 0.000000
0.443333 0.036585 0.000000 0.000000 0.900000 0.000000
0.570000 0.036585 -0.000000 0.000000 0.900000 0.000000
0.696667 0.036585 -0.000000 0.000000 0.900000 0.000000
0.823333 0.036585 -0.000000 -0.000000 0.900000 0.000000
0.950000 0.036585 -0.000000 -0.000000 0.900000 0.000000
1.076667 0.036585 0.000000 -0.000000 0.900000 0.000000
1.203333 0.036585 0.000000 0.000000 0.900000 0.000000
1.330000 0.036585 -0.000000 -0.000000 0.900000 0.000000
1.456667 0.036585 0.000000 -0.000000 0.900000 0.000000
1.583333 0.036585 0.000000 -0.000000 0.900000 0.000000
1.710000 0.036585 0.000000 0.000000 0.900000 0.000000
1.836667 0.036585 0.000000 -0.000000 0.900000 0.000000
1.963333 0.036585 0.000000 -0.000000 0.900000 0.000000
2.090000 0.036585 0.000000 -0.000000 0.900000 0.000000
2.216667 0.036585 0.000000 -0.000000 0.900000 0.000000
2.343333 0.036585 0.000000 -0.000000 0.900000 0.000000
2.470000 0.036585 0.000000 0.000000 0.900000 0.000000
2.596667 0.036585 0.000000 -0.000000 0.900000 0.000000
2.723333 0.036585 0.000000 0.000000 0.900000 0.000000
2.850000 0.036585 0.000000 -0.000000 0.900000 0.000000
2.976667 0.036585 0.000000 0.000000 0.900000 0.000000
3.103333 0.036585 0.000000 -0.000000 0.900000 0.000000
3.230000 0.036585 0.000000 0.000000 0.900000 0.000000
3.356667 0.036585 0.000000 -0.000000 0.900000 0.000000
3.483333 0.036585 0.000000 0.000000 0.900000 0.000000
3.610000 0.036585 0.000000 0.000000 0.900000 0.000000
3.736667 0.036585 0.000000 0.000000 0.000000 0.000000
0.063333 0.051220 0.000000 0.000000 0.000000 0.000000
0.190000 0.051220 0.000000 -0.000000 0.900000 0.000000
0.316667 0.051220 0.000000 -0.000000 0.900000 0.000000
0.443333 0.051220 0.000000 0.000000 0.900000 0.000000
0.570000 0.051220 -0.000000 0.000000 0.900000 0.000000
0.696667 0.051220 -0.000000 0.000000 0.900000 0.000000
0.823333 0.051220 -0.000000 -0.000000 0.900000 0.000000
0.950000 0.051220 -0.000000 -0.000000 0.900000 0.000000
1.076667 0.051220 0.000000 -0.000000 0.900000 0.000000
1.203333 0.051220 -0.000000 0.000000 0.900000 0.000000
1.330000 0.051220 -0.000000 -0.000000 0.900000 0.000000
1.456667 0.051220 0.000000 -0.000000 0.900000 0.000000
1.583333 0.051220 0.000000 -0.000000 0.900000 0.000000
1.710000 0.051220 0.000000 0.000000 0.900000 0.000000
1.836667 0.051220 0.000000 -0.000000 0.900000 0.000000
1.963333 0.051220 0.000000 -0.000000 0.900000 0.000000
2.090000 0.051220 0.000000 -0.000000 0.900000 0.000000
2.216667 0.051220 0.000000 -0.000000 0.900000 0.000000
2.343333 0.051220 0.000000 -0.000000 0.900000 0.000000
2.470000 0.051220 0.000000 0.000000 0.900000 0.000000
2.596667 0.051220 0.000000 -0.000000 0.900000 0.000000
2.723333 0.051220 0.000000 0.000000 0.900000 0.000000
2.850000 0.051220 0.000000 -0.000000 0.900000 0.000000
2.976667 0.051220 0.000000 0.000000 0.900000 0.000000
3.103333 0.051220 0.000000 -0.000000 0.900000 0.000000
3.230000 0.051220 0.000000 0.000000 0.900000 0.000000
3.356667 0.051220 0.000000 -0.000000 0.900000 0.000000
3.483333 0.051220 0.000000 0.000000 0.900000 0.000000
3.610000 0.051220 0.000000 0.000000 0.900000 0.000000
3.736667 0.051220 0.000000 0.000000 0.000000 0.000000
0.063333 0.065854 0.000000 0.000000 0.000000 0.000000
0.190000 0.065854 0.000000 -0.000000 0.900000 0.000000
0.316667 0.065854 0.000000 -0.000000 0.900000 0.000000
0.443333 0.065854 0.000000 0.000000 0.900000 0.000000
0.570000 0.065854 -0.000000 0.000000 0.900000 0.000000
0.696667 0.065854 -0.000000 0.000000 0.900000 0.000000
0.823333 0.065854 -0.000000 -0.000000 0.900000 0.000000
0.950000 0.065854 -0.000000 -0.000000 0.900000 0.000000
1.076667 0.065854 0.000000 -0.000000 0.900000 0.000000
1.203333 0.065854 0.000000 -0.000000 0.900000 0.000000
1.330000 0.065854 -0.000000 -0.000000 0.900000 0.000000
1.456667 0.065854 0.000000 -0.000000 0.900000 0.000000
1.583333 0.065854 0.000000 -0.000000 0.900000 0.000000
1.710000 0.065854 0.000000 -0.000000 0.900000 0.000000
1.836667 0.065854 0.000000 -0.000000 0.900000 0.000000
1.963333 0.065854 0.000000 -0.000000 0.900000 0.000000
2.090000 0.065854 0.000000 -0.000000 0.900000 0.000000
2.216667 0.065854 0.000000 -0.000000 0.900000 0.000000
2.343333 0.065854 0.000000 -0.000000 0.900000 0.000000
2.470000 0.065854 0.000000 0.000000 0.900000 0.000000
2.596667 0.065854 0.000000 -0.000000 0.900000 0.000000
2.723333 0.065854 0.000000 0.000000 0.900000 0.000000
2.850000 0.065854 0.000000 0.000000 0.900000 0.000000
2.976667 0.065854 0.000000 0.000000 0.900000 0.000000
3.103333 0.065854 0.000000 -0.000000 0.900000 0.000000
3.230000 0.065854 0.000000 0.000000 0.900000 0.000000
3.356667 0.065854 0.000000 -0.000000 0.900000 0.000000
3.483333 0.065854 0.000000 0.000000 0.900000 0.000000
3.610000 0.065854 0.000000 0.000000 0.900000 0.000000
3.736667 0.065854 0.000000 0.000000 0.000000 0.000000
0.063333 0.080488 0.000000 0.000000 0.000000 0.000000
0.190000 0.080488 -0.000000 -0.000000 0.900000 0.000000
0.316667 0.080488 -0.000000 -0.000000 0.900000 0.000000
0.443333 0.080488 -0.000000 0.000000 0.900000 0.000000
0.570000 0.080488 -0.000000 0.000000 0.900000 0.000000
0.696667 0.080488 -0.000000 0.000000 0.900000 0.000000
0.823333 0.080488 -0.000000 -0.000000 0.900000 0.000000
0.950000 0.080488 -0.000000 -0.000000 0.900000 0.000000
1.076667 0.080488 0.000000 -0.000000 0.900000 0.000000
1.203333 0.080488 0.000000 -0.000000 0.900000 0.000000
1.330000 0.080488 -0.000000 -0.000000 0.900000 0.000000
1.456667 0.080488 0.000000 -0.000000 0.900000 0.000000
1.583333 0.080488 0.000000 -0.000000 0.900000 0.000000
1.710000 0.080488 0.000000 -0.000000 0.900000 0.000000
1.836667 0.080488 0.000000 -0.000000 0.900000 0.000000
1.963333 0.080488 0.000000 -0.000000 0.900000 0.000000
2.090000 0.080488 0.000000 -0.000000 0.900000 0.000000
2.216667 0.080488 0.000000 -0.000000 0.900000 0.000000
2.343333 0.080488 0.000000 -0.000000 0.900000 0.000000
2.470000 0.080488 0.000000 0.000000 0.900000 0.000000
2.596667 0.080488 0.000000 -0.000000 0.900000 0.000000
2.723333 0.080488 0.000000 0.000000 0.900000 0.000000
2.850000 0.080488 0.000000 0.000000 0.900000 0.000000
2.976667 0.080488 0.000000 -0.000000 0.900000 0.000000
3.103333 0.080488 0.000000 0.000000 0.900000 0.000000
3.230000 0.080488 0.000000 0.000000 0.900000 0.000000
3.356667 0.080488 0.000000 -0.000000 0.900000 0.000000
3.483333 0.080488 0.000000 0.000000 0.900000 0.000000
3.610000 0.080488 0.000000 0.000000 0.900000 0.000000
3.736667 0.080488 0.000000 0.000000 0.000000 0.000000
0.063333 0.095122 0.000000 0.000000 0.000000 0.000000
0.190000 0.095122 -0.000000 -0.000000 0.900000 0.000000
0.316667 0.095122 -0.000000 -0.000000 0.900000 0.000000
0.443333 0.095122 -0.000000 0.000000 0.900000 0.000000
0.570000 0.095122 -0.000000 0.000000 0.900000 0.000000
0.696667 0.095122 -0.000000 0.000000 0.900000 0.000000
0.823333 0.095122 -0.000000 -0.000000 0.900000 0.000000
0.950000 0.095122 -0.000000 -0.000000 0.900000 0.000000
1.076667 0.095122 0.000000 -0.000000 0.900000 0.000000
1.203333 0.095122 0.000000 -0.000000 0.900000 0.000000
1.330000 0.095122 -0.000000 -0.000000 0.900000 0.000000
1.456667 0.095122 0.000000 -0.000000 0.900000 0.000000
1.583333 0.095122 0.000000 -0.000000 0.900000 0.000000
1.710000 0.095122 0.000000 -0.000000 0.900000 0.000000
1.836667 0.095122 0.000000 -0.000000 0.900000 0.000000
1.963333 0.095122 0.000000 -0.000000 0.900000 0.000000
2.090000 0.095122 0.000000 -0.000000 0.900000 0.000000
2.216667 0.095122 0.000000 -0.000000 0.900000 0.000000
2.343333 0.095122 0.000000 -0.000000 0.900000 0.000000
2.470000 0.095122 0.000000 0.000000 0.900000 0.000000
2.596667 0.095122 0.000000 -0.000000 0.900000 0.000000
2.723333 0.095122 0.000000 0.000000 0.900000 0.000000
2.850000 0.095122 0.000000 0.000000 0.900000 0.000000
2.976667 0.095122 0.000000 -0.000000 0.900000 0.000000
3.103333 0.095122 0.000000 0.000000 0.900000 0.000000
3.230000 0.095122 0.000000 0.000000 0.900000 0.000000
3.356667 0.095122 0.000000 -0.000000 0.900000 0.000000
3.483333 0.095122 0.000000 0.000000 0.900000 0.000000
3.610000 0.095122 0.000000 0.000000 0.900000 0.000000
3.736667 0.095122 0.000000 0.000000 0.000000 0.000000
0.063333 0.109756 0.000000 0.000000 0.000000 0.000000
0.190000 0.109756 -0.000000 -0.000000 0.900000 0.000000
0.316667 0.109756 -0.000000 -0.000000 0.900000 0.000000
0.443333 0.109756 -0.000000 0.000000 0.900000 0.000000
0.570000 0.109756 -0.000000 0.000000 0.900000 0.000000
0.696667 0.109756 -0.000000 0.000000 0.900000 0.000000
0.823333 0.109756 -0.000000 -0.000000 0.900000 0.000000
0.950000 0.109756 -0.000000 -0.000000 0.900000 0.000000
1.076667 0.109756 0.000000 -0.000000 0.900000 0.000000
1.203333 0.109756 0.000000 -0.000000 0.900000 0.000000
1.330000 0.109756 -0.000000 -0.000000 0.900000 0.000000
1.456667 0.109756 0.000000 -0.000000 0.900000 0.000000
1.583333 0.109756 0.000000 -0.000000 0.900000 0.000000
1.710000 0.109756 0.000000 -0.000000 0.900000 0.000000
1.836667 0.109756 0.000000 -0.000000 0.900000 0.000000
1.963333 0.109756 0.000000 -0.000000 0.900000 0.000000
2.090000 0.109756 0.000000 -0.000000 0.900000 0.000000
2.216667 0.109756 0.000000 -0.000000 0.900000 0.000000
2.343333 0.109756 0.000000 -0.000000 0.900000 0.000000
2.470000 0.109756 0.000000 -0.000000 0.900000 0.000000
2.596667 0.109756 0.000000 -0.000000 0.900000 0.000000
2.723333 0.109756 0.000000 0.000000 0.900000 0.000000
2.850000 0.109756 0.000000 0.000000 0.900000 0.000000
2.976667 0.109756 0.000000 -0.000000 0.900000 0.000000
3.103333 0.109756 0.000000 0.000000 0.900000 0.000000
3.230000 0.109756 0.000000 0.000000 0.900000 0.000000
3.356667 0.109756 0.000000 -0.000000 0.900000 0.000000
3.483333 0.109756 0.000000 0.000000 0.900000 0.000000
3.610000 0.109756 0.000000 0.000000 0.900000 0.000000
3.736667 0.109756 0.000000 0.000000 0.000000 0.000000
0.063333 0.124390 0.000000 0.000000 0.000000 0.000000
0.190000 0.124390 -0.000000 -0.000000 0.900000 0.000000
0.316667 0.124390 -0.000000 -0.000000 0.900000 0.000000
0.443333 0.124390 -0.000000 0.000000 0.900000 0.000000
0.570000 0.124390 -0.000000 0.000000 0.900000 0.000000
0.696667 0.124390 -0.000000 0.000000 0.900000 0.000000
0.823333 0.124390 0.000000 -0.000000 0.900000 0.000000
0.950000 0.124390 -0.000000 -0.000000 0.900000 0.000000
1.076667 0.124390 0.000000 -0.000000 0.900000 0.000000
1.203333 0.124390 0.000000 -0.000000 0.900000 0.000000
1.330000 0.124390 -0.000000 -0.000000 0.900000 0.000000
1.456667 0.124390 0.000000 -0.000000 0.900000 0.000000
1.583333 0.124390 0.000000 -0.000000 0.900000 0.000000
1.710000 0.124390 0.000000 -0.000000 0.900000 0.000000
1.836667 0.124390 0.000000 -0.000000 0.900000 0.000000
1.963333 0.124390 0.000000 -0.000000 0.900000 0.000000
2.090000 0.124390 0.000000 -0.000000 0.900000 0.000000
2.216667 0.124390 0.000000 -0.000000 0.900000 0.000000
2.343333 0.124390 0.000000 -0.000000 0.900000 0.000000
2.470000 0.124390 0.000000 -0.000000 0.900000 0.000000
2.596667 0.124390 0.000000 -0.000000 0.900000 0.000000
2.723333 0.124390 0.000000 0.000000 0.900000 0.000000
2.850000 0.124390 0.000000 0.000000 0.900000 0.000000
2.976667 0.124390 0.000000 -0.000000 0.900000 0.000000
3.103333 0.124390 0.000000 0.000000 0.900000 0.000000
3.230000 0.124390 0.000000 0.000000 0.900000 0.000000
3.356667 0.124390 0.000000 -0.000000 0.900000 0.000000
3.483333 0.124390 0.000000 0.000000 0.900000 0.000000
3.610000 0.124390 0.000000 0.000000 0.900000 0.000000
3.736667 0.124390 0.000000 0.000000 0.000000 0.000000
0.063333 0.139024 0.000000 0.000000 0.000000 0.000000
0.190000 0.139024 -0.000000 -0.000000 0.900000 0.000000
0.316667 0.139024 -0.000000 -0.000000 0.900000 0.000000
0.443333 0.139024 -0.000000 0.000000 0.900000 0.000000
0.570000 0.139024 -0.000000 0.000000 0.900000 0.000000
0.696667 0.139024 -0.000000 0.000000 0.900000 0.000000
0.823333 0.139024 0.000000 -0.000000 0.900000 0.000000
0.950000 0.139024 -0.000000 -0.000000 0.900000 0.000000
1.076667 0.139024 0.000000 -0.000000 0.900000 0.000000
1.203333 0.139024 0.000000 -0.000000 0.900000 0.000000
1.330000 0.139024 -0.000000 -0.000000 0.900000 0.000000
1.456667 0.139024 0.000000 -0.000000 0.900000 0.000000
1.583333 0.139024 0.000000 -0.000000 0.900000 0.000000
1.710000 0.139024 0.000000 -0.000000 0.900000 0.000000
1.836667 0.139024 0.000000 -0.000000 0.900000 0.000000
1.963333 0.139024 0.000000 -0.000000 0.900000 0.000000
2.090000 0.139024 0.000000 -0.000000 0.900000 0.000000
2.216667 0.139024 0.000000 -0.000000 0.900000 0.000000
2.343333 0.139024 0.000000 -0.000000 0.900000 0.000000
2.470000 0.139024 0.000000 -0.000000 0.900000 0.000000
2.596667 0.139024 0.000000 -0.000000 0.900000 0.000000
2.723333 0.139024 0.000000 -0.000000 0.900000 0.000000
2.850000 0.139024 0.000000 0.000000 0.900000 0.000000
2.976667 0.139024 0.000000 -0.000000 0.900000 0.000000
3.103333 0.139024 0.000000 0.000000 0.899999 0.000000
3.230000 0.139024 0.000000 0.000000 0.900000 0.000000
3.356667 0.139024 0.000001 -0.000000 0.899989 0.000001
3.483333 0.139024 0.000000 0.000000 0.900000 0.000000
3.610000 0.139024 0.000000 0.000000 0.900000 0.000000
3.736667 0.139024 0.000000 0.000000 0.000000 0.000000
0.063333 0.153659 0.000000 0.000000 0.000000 0.000000
0.190000 0.153659 -0.000000 -0.000000 0.900000 0.000000
0.316667 0.153659 -0.000000 -0.000000 0.900000 0.000000
0.443333 0.153659 -0.000000 0.000000 0.900000 0.000000
0.570000 0.153659 -0.000000 0.000000 0.900000 0.000000
0.696667 0.153659 0.000000 0.000000 0.900000 0.000000
0.823333 0.153659 0.000000 -0.000000 0.900000 0.000000
0.950000 0.153659 0.000000 -0.000000 0.900000 0.000000
1.076667 0.153659 0.000000 -0.000000 0.900000 0.000000
1.203333 0.153659 0.000000 -0.000000 0.900000 0.000000
1.330000 0.153659 -0.000000 -0.000000 0.900000 0.000000
1.456667 0.153659 0.000000 -0.000000 0.900000 0.000000
1.583333 0.153659 0.000000 -0.000000 0.900000 0.000000
1.710000 0.153659 0.000000 -0.000000 0.900000 0.000000
1.836667 0.153659 0.000000 -0.000000 0.900000 0.000000
1.963333 0.153659 0.000000 -0.000000 0.900000 0.000000
2.090000 0.153659 0.000000 -0.000000 0.900000 0.000000
2.216667 0.153659 0.000000 -0.000000 0.900000 0.000000
2.343333 0.153659 0.000000 -0.000000 0.900000 0.000000
2.470000 0.153659 0.000000 -0.000000 0.900000 0.000000
2.596667 0.153659 0.000000 -0.000000 0.900000 0.000000
2.723333 0.153659 0.000000 -0.000000 0.900000 0.000000
2.850000 0.153659 0.000000 0.000000 0.900000 0.000000
2.976667 0.153659 0.000000 -0.000000 0.899998 0.000000
3.103333 0.153659 0.000001 0.000000 0.899989 0.000001
3.230000 0.153659 0.000000 0.000000 0.899999 0.000000
3.356667 0.153659 0.000025 -0.000001 0.899773 0.000025
3.483333 0.153659 0.000001 0.000000 0.899988 0.000001
3.610000 0.153659 0.000000 0.000000 0.900000 0.000000
3.736667 0.153659 0.000000 0.000000 0.000000 0.000000
0.063333 0.168293 0.000000 0.000000 0.000000 0.000000
0.190000 0.168293 -0.000000 -0.000000 0.900000 0.000000
0.316667 0.168293 -0.000000 -0.000000 0.900000 0.000000
0.443333 0.168293 -0.000000 0.000000 0.900000 0.000000
0.570000 0.168293 -0.000000 0.000000 0.900000 0.000000
0.696667 0.168293 0.000000 0.000000 0.900000 0.000000
0.823333 0.168293 0.000000 -0.000000 0.899999 0.000000
0.950000 0.168293 0.000000 -0.000000 0.900000 0.000000
1.076667 0.168293 0.000000 -0.000000 0.900000 0.000000
1.203333 0.168293 0.000000 -0.000000 0.900000 0.000000
1.330000 0.168293 -0.000000 -0.000000 0.900000 0.000000
1.456667 0.168293 0.000000 -0.000000 0.900000 0.000000
1.583333 0.168293 0.000000 -0.000000 0.900000 0.000000
1.710000 0.168293 0.000000 -0.000000 0.899999 0.000000
1.836667 0.168293 0.000000 -0.000000 0.900000 0.000000
1.963333 0.168293 0.000000 -0.000000 0.900000 0.000000
2.090000 0.168293 0.000000 -0.000000 0.900000 0.000000
2.216667 0.168293 0.000000 -0.000000 0.899998 0.000000
2.343333 0.168293 0.000000 -0.000000 0.899999 0.000000
2.470000 0.168293 0.000001 -0.000000 0.899990 0.000001
2.596667 0.168293 0.000000 -0.000000 0.899995 0.000000
2.723333 0.168293 0.000000 -0.000000 0.899998 0.000000
2.850000 0.168293 0.000000 0.000000 0.899997 0.000000
2.976667 0.168293 0.000013 -0.000000 0.899897 0.000013
3.103333 0.168293 0.000026 0.000001 0.899810 0.000026
3.230000 0.168293 0.000006 0.000000 0.899956 0.000006
3.356667 0.168293 0.000410 -0.000012 0.896289 0.000410
3.483333 0.168293 0.000022 0.000009 0.899715 0.000024
3.610000 0.168293 0.000068 0.000134 0.897891 0.000150
3.736667 0.168293 0.000000 0.000000 0.000000 0.000000
0.063333 0.182927 0.000000 0.000000 0.000000 0.000000
0.190000 0.182927 -0.000000 0.000000 0.900000 0.000000
0.316667 0.182927 -0.000000 -0.000000 0.899995 0.000000
0.443333 0.182927 -0.000000 0.000000 0.900000 0.000000
0.570000 0.182927 -0.000000 0.000000 0.900000 0.000000
0.696667 0.182927 0.000000 0.000000 0.900000 0.000000
0.823333 0.182927 0.000000 -0.000000 0.899986 0.000001
0.950000 0.182927 0.000000 -0.000000 0.899998 0.000000
1.076667 0.182927 0.000000 -0.000000 0.899999 0.000000
1.203333 0.182927 0.000000 -0.000000 0.899991 0.000000
1.330000 0.182927 -0.000000 -0.000000 0.900000 0.000000
1.456667 0.182927 0.000000 -0.000000 0.899999 0.000000
1.583333 0.182927 0.000000 -0.000000 0.900000 0.000000
1.710000 0.182927 0.000001 -0.000000 0.899981 0.000001
1.836667 0.182927 0.000001 -0.000000 0.899985 0.000001
1.963333 0.182927 0.000000 -0.000000 0.899997 0.000000
2.090000 0.182927 0.000000 -0.000000 0.900000 0.000000
2.216667 0.182927 0.000002 -0.000000 0.899969 0.000002
2.343333 0.182927 0.000003 -0.000000 0.899962 0.000003
2.470000 0.182927 0.000042 -0.000002 0.899575 0.000042
2.596667 0.182927 0.000018 -0.000001 0.899797 0.000018
2.723333 0.182927 0.000017 -0.000000 0.899822 0.000017
2.850000 0.182927 0.000046 -0.000001 0.899594 0.000046
2.976667 0.182927 0.000427 -0.000007 0.896671 0.000427
3.103333 0.182927 0.000492 0.000013 0.896283 0.000492
3.230000 0.182927 0.000145 0.000007 0.898740 0.000146
3.356667 0.182927 0.003097 0.000105 0.853815 0.003099
3.483333 0.182927 0.003092 0.003686 0.787959 0.004811
3.610000 0.182927 0.001452 0.008555 0.774866 0.008678
3.736667 0.182927 0.000000 0.000000 0.000000 0.000000
0.063333 0.197561 0.000000 0.000000 0.000000 0.000000
0.190000 0.197561 -0.000000 0.000000 0.899999 0.000000
0.316667 0.197561 -0.000005 -0.000001 0.899906 0.000005
0.443333 0.197561 -0.000000 0.000000 0.899995 0.000000
0.570000 0.197561 -0.000000 0.000000 0.900000 0.000000
0.696667 0.197561 0.000000 0.000000 0.900000 0.000000
0.823333 0.197561 0.000006 -0.000004 0.899810 0.000007
0.950000 0.197561 0.000000 -0.000001 0.899943 0.000001
1.076667 0.197561 0.000001 -0.000000 0.899976 0.000001
1.203333 0.197561 0.000003 -0.000002 0.899838 0.000003
1.330000 0.197561 -0.000000 -0.000000 0.899984 0.000000
1.456667 0.197561 0.000000 -0.000001 0.899953 0.000001
1.583333 0.197561 0.000001 -0.000000 0.899987 0.000001
1.710000 0.197561 0.000025 -0.000006 0.899592 0.000025
1.836667 0.197561 0.000020 -0.000004 0.899621 0.000020
1.963333 0.197561 0.000011 -0.000001 0.899827 0.000011
2.090000 0.197561 0.000003 -0.000000 0.899962 0.000003
2.216667 0.197561 0.000041 -0.000003 0.899472 0.000041
2.343333 0.197561 0.000104 -0.000013 0.898731 0.000105
2.470000 0.197561 0.000918 -0.000065 0.890388 0.000920
2.596667 0.197561 0.000589 -0.000034 0.893351 0.000590
2.723333 0.197561 0.000720 -0.000025 0.892069 0.000721
2.850000 0.197561 0.000998 -0.000011 0.888676 0.000998
2.976667 0.197561 0.006708 -0.000117 0.816083 0.006709
3.103333 0.197561 0.012241 0.000316 0.749487 0.012245
3.230000 0.197561 0.013376 0.001608 0.672873 0.013473
3.356667 0.197561 0.002246 0.002915 0.608361 0.003680
3.483333 0.197561 -0.007026 0.008110 0.643588 0.010730
3.610000 0.197561 -0.003506 0.015763 0.666752 0.016148
3.736667 0.197561 0.000000 0.000000 0.000000 0.000000
0.063333 0.212195 0.000000 0.000000 0.000000 0.000000
0.190000 0.212195 -0.000001 0.000000 0.899963 0.000001
0.316667 0.212195 -0.000086 -0.000016 0.898454 0.000088
0.443333 0.212195 -0.000022 -0.000001 0.899613 0.000022
0.570000 0.212195 -0.000000 0.000000 0.899999 0.000000
0.696667 0.212195 0.000000 0.000000 0.899998 0.000000
0.823333 0.212195 0.000082 -0.000037 0.897878 0.000089
0.950000 0.212195 0.000010 -0.000015 0.898892 0.000018
1.076667 0.212195 0.000018 -0.000007 0.899294 0.000019
1.203333 0.212195 0.000037 -0.000025 0.898003 0.000044
1.330000 0.212195 -0.000004 -0.000004 0.899593 0.000006
1.456667 0.212195 0.000008 -0.000015 0.898754 0.000017
1.583333 0.212195 0.000020 -0.000006 0.899526 0.000021
1.710000 0.212195 0.000369 -0.000088 0.893698 0.000379
1.836667 0.212195 0.000381 -0.000072 0.892445 0.000388
1.963333 0.212195 0.000429 -0.000045 0.892958 0.000431
2.090000 0.212195 0.000278 -0.000015 0.896318 0.000279
2.216667 0.212195 0.000766 -0.000061 0.889672 0.000769
2.343333 0.212195 0.001311 -0.000196 0.876176 0.001325
2.470000 0.212195 0.005308 -0.000931 0.795069 0.005389
2.596667 0.212195 0.006684 -0.000703 0.750342 0.006721
2.723333 0.212195 0.010261 -0.000655 0.676653 0.010282
2.850000 0.212195 0.011883 0.000854 0.614559 0.011914
2.976667 0.212195 0.009423 -0.000118 0.600567 0.009424
3.103333 0.212195 0.009229 0.000439 0.603004 0.009239
3.230000 0.212195 0.003567 0.002706 0.606918 0.004477
3.356667 0.212195 -0.002941 0.004458 0.600394 0.005341
3.483333 0.212195 -0.008064 0.009020 0.605838 0.012099
3.610000 0.212195 -0.005019 0.017760 0.617198 0.018455
3.736667 0.212195 0.000000 0.000000 0.000000 0.000000
0.063333 0.226829 0.000000 0.000000 0.000000 0.000000
0.190000 0.226829 -0.000022 0.000012 0.899147 0.000025
0.316667 0.226829 -0.001181 -0.000168 0.880389 0.001193
0.443333 0.226829 -0.000579 -0.000057 0.889585 0.000582
0.570000 0.226829 -0.000002 0.000001 0.899904 0.000002
0.696667 0.226829 0.000008 0.000002 0.899729 0.000008
0.823333 0.226829 0.000884 -0.000283 0.881350 0.000928
0.950000 0.226829 0.000297 -0.000200 0.884698 0.000358
1.076667 0.226829 0.000348 -0.000126 0.888199 0.000370
1.203333 0.226829 0.000339 -0.000225 0.880761 0.000407
1.330000 0.226829 -0.000117 -0.000084 0.891567 0.000144
1.456667 0.226829 0.000076 -0.000264 0.876473 0.000275
1.583333 0.226829 0.000409 -0.000133 0.887100 0.000430
1.710000 0.226829 0.001586 -0.000827 0.838885 0.001789
1.836667 0.226829 0.001202 -0.000916 0.805744 0.001511
1.963333 0.226829 0.003715 -0.000951 0.761980 0.003835
2.090000 0.226829 0.007854 -0.000698 0.710250 0.007885
2.216667 0.226829 0.009392 -0.001296 0.654973 0.009481
2.343333 0.226829 0.004081 -0.000496 0.604660 0.004111
2.470000 0.226829 0.003095 -0.003895 0.600181 0.004975
2.596667 0.226829 0.001448 -0.000720 0.603003 0.001617
2.723333 0.226829 0.001239 -0.000709 0.600108 0.001428
2.850000 0.226829 0.004794 0.001604 0.600752 0.005056
2.976667 0.226829 0.007641 -0.000014 0.600012 0.007641
3.103333 0.226829 0.009220 0.000383 0.600020 0.009228
3.230000 0.226829 0.002851 0.003222 0.600475 0.004302
3.356667 0.226829 -0.003308 0.004977 0.600017 0.005976
3.483333 0.226829 -0.007454 0.009051 0.600552 0.011726
3.610000 0.226829 -0.004880 0.017104 0.603139 0.017786
3.736667 0.226829 0.000000 0.000000 0.000000 0.000000
0.063333 0.241463 0.000000 0.000000 0.000000 0.000000
0.190000 0.241463 -0.001998 0.002957 0.735272 0.003568
0.316667 0.241463 -0.004974 -0.001008 0.754113 0.005075
0.443333 0.241463 -0.003874 -0.000839 0.793185 0.003964
0.570000 0.241463 -0.000749 0.000164 0.833339 0.000766
0.696667 0.241463 0.001768 0.000139 0.839227 0.001773
0.823333 0.241463 0.004507 -0.001544 0.787071 0.004764
0.950000 0.241463 0.001712 -0.001566 0.778282 0.002320
1.076667 0.241463 0.001661 -0.001416 0.769464 0.002183
1.203333 0.241463 -0.001348 -0.001919 0.736672 0.002346
1.330000 0.241463 -0.009111 -0.001315 0.716013 0.009205
1.456667 0.241463 -0.009027 -0.002896 0.666051 0.009481
1.583333 0.241463 -0.002541 -0.001717 0.630975 0.003067
1.710000 0.241463 -0.005296 -0.004097 0.601463 0.006696
1.836667 0.241463 -0.007100 -0.003135 0.600855 0.007762
1.963333 0.241463 -0.001637 -0.002171 0.600497 0.002719
2.090000 0.241463 0.002447 -0.000911 0.601369 0.002611
2.216667 0.241463 0.002108 -0.001352 0.600517 0.002504
2.343333 0.241463 -0.000332 0.001222 0.600139 0.001266
2.470000 0.241463 0.003347 -0.005626 0.600002 0.006546
2.596667 0.241463 0.002017 0.000376 0.600172 0.002051
2.723333 0.241463 0.001260 -0.000495 0.600002 0.001354
2.850000 0.241463 0.003413 0.001802 0.600026 0.003859
2.976667 0.241463 0.006412 -0.000201 0.600000 0.006415
3.103333 0.241463 0.009203 0.000406 0.600000 0.009212
3.230000 0.241463 0.002805 0.003739 0.600029 0.004674
3.356667 0.241463 -0.003091 0.005371 0.600001 0.006197
3.483333 0.241463 -0.006957 0.008929 0.600041 0.011320
3.610000 0.241463 -0.004658 0.015775 0.600424 0.016448
3.736667 0.241463 0.000000 0.000000 0.000000 0.000000
0.063333 0.256098 0.000000 0.000000 0.000000 0.000000
0.190000 0.256098 0.000362 0.005101 0.626721 0.005114
0.316667 0.256098 -0.003688 -0.001257 0.600096 0.003896
0.443333 0.256098 -0.007483 -0.002573 0.600220 0.007913
0.570000 0.256098 -0.002897 0.000193 0.610569 0.002904
0.696667 0.256098 0.004813 0.000281 0.611935 0.004821
0.823333 0.256098 0.006073 -0.003951 0.600262 0.007245
0.950000 0.256098 -0.001174 -0.003995 0.600102 0.004164
1.076667 0.256098 -0.003087 -0.003005 0.602087 0.004308
1.203333 0.256098 -0.009896 -0.003698 0.606382 0.010564
1.330000 0.256098 -0.017450 -0.001169 0.604691 0.017489
1.456667 0.256098 -0.014402 -0.003866 0.600946 0.014912
1.583333 0.256098 -0.009120 -0.000951 0.600649 0.009169
1.710000 0.256098 -0.007707 -0.004882 0.600003 0.009123
1.836667 0.256098 -0.007079 -0.003370 0.600001 0.007840
1.963333 0.256098 -0.002873 -0.002230 0.600001 0.003636
2.090000 0.256098 0.000701 -0.000668 0.600040 0.000968
2.216667 0.256098 0.000338 -0.001162 0.600004 0.001210
2.343333 0.256098 -0.002452 0.001837 0.600006 0.003064
2.470000 0.256098 0.002347 -0.006859 0.600000 0.007249
2.596667 0.256098 0.001335 0.001091 0.600012 0.001725
2.723333 0.256098 -0.000287 -0.000329 0.600000 0.000436
2.850000 0.256098 0.002637 0.002099 0.600001 0.003370
2.976667 0.256098 0.006040 -0.000507 0.600000 0.006061
3.103333 0.256098 0.009020 0.000563 0.600000 0.009038
3.230000 0.256098 0.002732 0.004291 0.600002 0.005087
3.356667 0.256098 -0.002854 0.005758 0.600000 0.006426
3.483333 0.256098 -0.006054 0.008748 0.600002 0.010639
3.610000 0.256098 -0.003994 0.014418 0.600044 0.014961
3.736667 0.256098 0.000000 0.000000 0.000000 0.000000
0.063333 0.270732 0.000000 0.000000 0.000000 0.000000
0.190000 0.270732 -0.000762 0.005453 0.602999 0.005506
0.316667 0.270732 -0.005216 -0.000286 0.600001 0.005224
0.443333 0.270732 -0.007703 -0.002580 0.600003 0.008124
0.570000 0.270732 -0.003217 0.000006 0.600174 0.003217