TITLE="(Vx,Vy)"
VARIABLES=X,Y,Vx,Vy,Vm,V
ZONE T="T-Dummy" I=30, J=41, F=POINT
0.063333 0.007317 0.000000 0.000000 0.000000 0.000000
0.190000 0.007317 0.000000 0.000000 0.000000 0.000000
0.316667 0.007317 0.000000 0.000000 0.000000 0.000000
0.443333 0.007317 0.000000 0.000000 0.000000 0.000000
0.570000 0.007317 0.000000 0.000000 0.000000 0.000000
0.696667 0.007317 0.000000 0.000000 0.000000 0.000000
0.823333 0.007317 0.000000 0.000000 0.000000 0.000000
0.950000 0.007317 0.000000 0.000000 0.000000 0.000000
1.076667 0.007317 0.000000 0.000000 0.000000 0.000000
1.203333 0.007317 0.000000 0.000000 0.000000 0.000000
1.330000 0.007317 0.000000 0.000000 0.000000 0.000000
1.456667 0.007317 0.000000 0.000000 0.000000 0.000000
1.583333 0.007317 0.000000 0.000000 0.000000 0.000000
1.710000 0.007317 0.000000 0.000000 0.000000 0.000000
1.836667 0.007317 0.000000 0.000000 0.000000 0.000000
1.963333 0.007317 0.000000 0.000000 0.000000 0.000000
2.090000 0.007317 0.000000 0.000000 0.000000 0.000000
2.216667 0.007317 0.000000 0.000000 0.000000 0.000000
2.343333 0.007317 0.000000 0.000000 0.000000 0.000000
2.470000 0.007317 0.000000 0.000000 0.000000 0.000000
2.596667 0.007317 0.000000 0.000000 0.000000 0.000000
2.723333 0.007317 0.000000 0.000000 0.000000 0.000000
2.850000 0.007317 0.000000 0.000000 0.000000 0.000000
2.976667 0.007317 0.000000 0.000000 0.000000 0.000000
3.103333 0.007317 0.000000 0.000000 0.000000 0.000000
3.230000 0.007317 0.000000 0.000000 0.000000 0.000000
3.356667 0.007317 0.000000 0.000000 0.000000 0.000000
3.483333 0.007317 0.000000 0.000000 0.000000 0.000000
3.610000 0.007317 0.000000 0.000000 0.000000 0.000000
3.736667 0.007317 0.000000 0.000000 0.000000 0.000000
0.063333 0.021951 0.000000 0.000000 0.000000 0.000000
0.190000 0.021951 0.000000 -0.000000 0.900000 0.000000
0.316667 0.021951 0.000000 -0.000000 0.900000 0.000000
0.443333 0.021951 0.000000 -0.000000 0.900000 0.000000
0.570000 0.021951 0.000000 0.000000 0.900000 0.000000
0.696667 0.021951 0.000000 -0.000000 0.900000 0.000000
0.823333 0.021951 0.000000 0.000000 0.900000 0.000000
0.950000 0.021951 0.000000 -0.000000 0.900000 0.000000
1.076667 0.021951 0.000000 -0.000000 0.900000 0.000000
1.203333 0.021951 0.000000 -0.000000 0.900000 0.000000
1.330000 0.021951 0.000000 -0.000000 0.900000 0.000000
1.456667 0.021951 0.000000 0.000000 0.900000 0.000000
1.583333 0.021951 0.000000 -0.000000 0.900000 0.000000
1.710000 0.021951 0.000000 0.000000 0.900000 0.000000
1.836667 0.021951 0.000000 -0.000000 0.900000 0.000000
1.963333 0.021951 0.000000 -0.000000 0.900000 0.000000
2.090000 0.021951 0.000000 -0.000000 0.900000 0.000000
2.216667 0.021951 0.000000 -0.000000 0.900000 0.000000
2.343333 0.021951 0.000000 -0.000000 0.900000 0.000000
2.470000 0.021951 0.000000 0.000000 0.900000 0.000000
2.596667 0.021951 0.000000 -0.000000 0.900000 0.000000
2.723333 0.021951 0.000000 -0.000000 0.900000 0.000000
2.850000 0.021951 0.000000 0.000000 0.900000 0.000000
2.976667 0.021951 0.000000 -0.000000 0.900000 0.000000
3.103333 0.021951 0.000000 0.000000 0.900000 0.000000
3.230000 0.021951 0.000000 -0.000000 0.900000 0.000000
3.356667 0.021951 0.000000 -0.000000 0.900000 0.000000
3.483333 0.021951 0.000000 0.000000 0.900000 0.000000
3.610000 0.021951 0.000000 0.000000 0.900000 0.000000
3.736667 0.021951 0.000000 0.000000 0.000000 0.000000
0.063333 0.036585 0.000000 0.000000 0.000000 0.000000
0.190000 0.036585 0.000000 -0.000000 0.900000 0.000000
0.316667 0.036585 0.000000 -0.000000 0.900000 0.000000
0.443333 0.036585 0.000000 -0.000000 0.900000 0.000000
0.570000 0.036585 0.000000 0.000000 0.900000 0.000000
0.696667 0.036585 -0.000000 0.000000 0.900000 0.000000
0.823333 0.036585 -0.000000 -0.000000 0.900000 0.000000
0.950000 0.036585 0.000000 -0.000000 0.900000 0.000000
1.076667 0.036585 0.000000 -0.000000 0.900000 0.000000
1.203333 0.036585 0.000000 -0.000000 0.900000 0.000000
1.330000 0.036585 0.000000 -0.000000 0.900000 0.000000
1.456667 0.036585 0.000000 0.000000 0.900000 0.000000
1.583333 0.036585 0.000000 -0.000000 0.900000 0.000000
1.710000 0.036585 0.000000 0.000000 0.900000 0.000000
1.836667 0.036585 0.000000 -0.000000 0.900000 0.000000
1.963333 0.036585 0.000000 -0.000000 0.900000 0.000000
2.090000 0.036585 0.000000 -0.000000 0.900000 0.000000
2.216667 0.036585 0.000000 -0.000000 0.900000 0.000000
2.343333 0.036585 0.000000 -0.000000 0.900000 0.000000
2.470000 0.036585 0.000000 0.000000 0.900000 0.000000
2.596667 0.036585 0.000000 -0.000000 0.900000 0.000000
2.723333 0.036585 0.000000 -0.000000 0.900000 0.000000
2.850000 0.036585 0.000000 0.000000 0.900000 0.000000
2.976667 0.036585 0.000000 -0.000000 0.900000 0.000000
3.103333 0.036585 0.000000 0.000000 0.900000 0.000000
3.230000 0.036585 0.000000 -0.000000 0.900000 0.000000
3.356667 0.036585 0.000000 -0.000000 0.900000 0.000000
3.483333 0.036585 0.000000 0.000000 0.900000 0.000000
3.610000 0.036585 0.000000 0.000000 0.900000 0.000000
3.736667 0.036585 0.000000 0.000000 0.000000 0.000000
0.063333 0.051220 0.000000 0.000000 0.000000 0.000000
0.190000 0.051220 0.000000 -0.000000 0.900000 0.000000
0.316667 0.051220 0.000000 -0.000000 0.900000 0.000000
0.443333 0.051220 0.000000 -0.000000 0.900000 0.000000
0.570000 0.051220 0.000000 0.000000 0.900000 0.000000
0.696667 0.051220 -0.000000 0.000000 0.900000 0.000000
0.823333 0.051220 -0.000000 -0.000000 0.900000 0.000000
0.950000 0.051220 0.000000 -0.000000 0.900000 0.000000
1.076667 0.051220 0.000000 -0.000000 0.900000 0.000000
1.203333 0.051220 0.000000 -0.000000 0.900000 0.000000
1.330000 0.051220 0.000000 -0.000000 0.900000 0.000000
1.456667 0.051220 0.000000 -0.000000 0.900000 0.000000
1.583333 0.051220 0.000000 -0.000000 0.900000 0.000000
1.710000 0.051220 0.000000 0.000000 0.900000 0.000000
1.836667 0.051220 0.000000 -0.000000 0.900000 0.000000
1.963333 0.051220 0.000000 -0.000000 0.900000 0.000000
2.090000 0.051220 0.000000 -0.000000 0.900000 0.000000
2.216667 0.051220 0.000000 -0.000000 0.900000 0.000000
2.343333 0.051220 0.000000 -0.000000 0.900000 0.000000
2.470000 0.051220 0.000000 -0.000000 0.900000 0.000000
2.596667 0.051220 0.000000 -0.000000 0.900000 0.000000
2.723333 0.051220 0.000000 -0.000000 0.900000 0.000000
2.850000 0.051220 0.000000 0.000000 0.900000 0.000000
2.976667 0.051220 0.000000 -0.000000 0.900000 0.000000
3.103333 0.051220 0.000000 0.000000 0.900000 0.000000
3.230000 0.051220 0.000000 -0.000000 0.900000 0.000000
3.356667 0.051220 0.000000 -0.000000 0.900000 0.000000
3.483333 0.051220 0.000000 0.000000 0.900000 0.000000
3.610000 0.051220 0.000000 0.000000 0.900000 0.000000
3.736667 0.051220 0.000000 0.000000 0.000000 0.000000
0.063333 0.065854 0.000000 0.000000 0.000000 0.000000
0.190000 0.065854 0.000000 -0.000000 0.900000 0.000000
0.316667 0.065854 0.000000 -0.000000 0.900000 0.000000
0.443333 0.065854 0.000000 -0.000000 0.900000 0.000000
0.570000 0.065854 0.000000 0.000000 0.900000 0.000000
0.696667 0.065854 0.000000 0.000000 0.900000 0.000000
0.823333 0.065854 0.000000 -0.000000 0.900000 0.000000
0.950000 0.065854 0.000000 -0.000000 0.900000 0.000000
1.076667 0.065854 0.000000 -0.000000 0.900000 0.000000
1.203333 0.065854 0.000000 -0.000000 0.900000 0.000000
1.330000 0.065854 0.000000 -0.000000 0.900000 0.000000
1.456667 0.065854 0.000000 -0.000000 0.900000 0.000000
1.583333 0.065854 0.000000 -0.000000 0.900000 0.000000
1.710000 0.065854 0.000000 -0.000000 0.900000 0.000000
1.836667 0.065854 0.000000 -0.000000 0.900000 0.000000
1.963333 0.065854 0.000000 -0.000000 0.900000 0.000000
2.090000 0.065854 0.000000 0.000000 0.900000 0.000000
2.216667 0.065854 0.000000 -0.000000 0.900000 0.000000
2.343333 0.065854 0.000000 -0.000000 0.900000 0.000000
2.470000 0.065854 0.000000 -0.000000 0.900000 0.000000
2.596667 0.065854 0.000000 -0.000000 0.900000 0.000000
2.723333 0.065854 0.000000 -0.000000 0.900000 0.000000
2.850000 0.065854 0.000000 0.000000 0.900000 0.000000
2.976667 0.065854 0.000000 -0.000000 0.900000 0.000000
3.103333 0.065854 0.000000 0.000000 0.900000 0.000000
3.230000 0.065854 0.000000 -0.000000 0.900000 0.000000
3.356667 0.065854 0.000000 -0.000000 0.900000 0.000000
3.483333 0.065854 0.000000 0.000000 0.900000 0.000000
3.610000 0.065854 0.000000 0.000000 0.900000 0.000000
3.736667 0.065854 0.000000 0.000000 0.000000 0.000000
0.063333 0.080488 0.000000 0.000000 0.000000 0.000000
0.190000 0.080488 0.000000 -0.000000 0.900000 0.000000
0.316667 0.080488 0.000000 -0.000000 0.900000 0.000000
0.443333 0.080488 0.000000 -0.000000 0.900000 0.000000
0.570000 0.080488 0.000000 0.000000 0.900000 0.000000
0.696667 0.080488 0.000000 0.000000 0.900000 0.000000
0.823333 0.080488 0.000000 -0.000000 0.900000 0.000000
0.950000 0.080488 0.000000 -0.000000 0.900000 0.000000
1.076667 0.080488 0.000000 -0.000000 0.900000 0.000000
1.203333 0.080488 0.000000 -0.000000 0.900000 0.000000
1.330000 0.080488 0.000000 -0.000000 0.900000 0.000000
1.456667 0.080488 0.000000 -0.000000 0.900000 0.000000
1.583333 0.080488 0.000000 -0.000000 0.900000 0.000000
1.710000 0.080488 0.000000 -0.000000 0.900000 0.000000
1.836667 0.080488 0.000000 -0.000000 0.900000 0.000000
1.963333 0.080488 0.000000 -0.000000 0.900000 0.000000
2.090000 0.080488 0.000000 0.000000 0.900000 0.000000
2.216667 0.080488 0.000000 -0.000000 0.900000 0.000000
2.343333 0.080488 0.000000 -0.000000 0.900000 0.000000
2.470000 0.080488 0.000000 -0.000000 0.900000 0.000000
2.596667 0.080488 0.000000 -0.000000 0.900000 0.000000
2.723333 0.080488 0.000000 -0.000000 0.900000 0.000000
2.850000 0.080488 0.000000 0.000000 0.900000 0.000000
2.976667 0.080488 0.000000 -0.000000 0.900000 0.000000
3.103333 0.080488 0.000000 0.000000 0.900000 0.000000
3.230000 0.080488 0.000000 -0.000000 0.900000 0.000000
3.356667 0.080488 0.000000 -0.000000 0.900000 0.000000
3.483333 0.080488 0.000000 0.000000 0.900000 0.000000
3.610000 0.080488 0.000000 0.000000 0.900000 0.000000
3.736667 0.080488 0.000000 0.000000 0.000000 0.000000
0.063333 0.095122 0.000000 0.000000 0.000000 0.000000
0.190000 0.095122 -0.000000 -0.000000 0.900000 0.000000
0.316667 0.095122 -0.000000 -0.000000 0.900000 0.000000
0.443333 0.095122 0.000000 -0.000000 0.900000 0.000000
0.570000 0.095122 0.000000 0.000000 0.900000 0.000000
0.696667 0.095122 0.000000 0.000000 0.900000 0.000000
0.823333 0.095122 0.000000 -0.000000 0.900000 0.000000
0.950000 0.095122 0.000000 -0.000000 0.900000 0.000000
1.076667 0.095122 0.000000 -0.000000 0.900000 0.000000
1.203333 0.095122 0.000000 -0.000000 0.900000 0.000000
1.330000 0.095122 0.000000 -0.000000 0.900000 0.000000
1.456667 0.095122 0.000000 -0.000000 0.900000 0.000000
1.583333 0.095122 0.000000 -0.000000 0.900000 0.000000
1.710000 0.095122 0.000000 -0.000000 0.900000 0.000000
1.836667 0.095122 0.000000 -0.000000 0.900000 0.000000
1.963333 0.095122 0.000000 -0.000000 0.900000 0.000000
2.090000 0.095122 0.000000 0.000000 0.900000 0.000000
2.216667 0.095122 0.000000 -0.000000 0.900000 0.000000
2.343333 0.095122 0.000000 -0.000000 0.900000 0.000000
2.470000 0.095122 0.000000 -0.000000 0.900000 0.000000
2.596667 0.095122 0.000000 -0.000000 0.900000 0.000000
2.723333 0.095122 0.000000 -0.000000 0.900000 0.000000
2.850000 0.095122 0.000000 0.000000 0.900000 0.000000
2.976667 0.095122 0.000000 -0.000000 0.900000 0.000000
3.103333 0.095122 0.000000 0.000000 0.900000 0.000000
3.230000 0.095122 0.000000 -0.000000 0.900000 0.000000
3.356667 0.095122 0.000000 -0.000000 0.900000 0.000000
3.483333 0.095122 0.000000 0.000000 0.900000 0.000000
3.610000 0.095122 0.000000 0.000000 0.900000 0.000000
3.736667 0.095122 0.000000 0.000000 0.000000 0.000000
0.063333 0.109756 0.000000 0.000000 0.000000 0.000000
0.190000 0.109756 -0.000000 -0.000000 0.900000 0.000000
0.316667 0.109756 -0.000000 -0.000000 0.900000 0.000000
0.443333 0.109756 -0.000000 -0.000000 0.900000 0.000000
0.570000 0.109756 0.000000 0.000000 0.900000 0.000000
0.696667 0.109756 0.000000 0.000000 0.900000 0.000000
0.823333 0.109756 0.000000 -0.000000 0.900000 0.000000
0.950000 0.109756 0.000000 -0.000000 0.900000 0.000000
1.076667 0.109756 0.000000 -0.000000 0.900000 0.000000
1.203333 0.109756 0.000000 -0.000000 0.900000 0.000000
1.330000 0.109756 0.000000 -0.000000 0.900000 0.000000
1.456667 0.109756 0.000000 -0.000000 0.900000 0.000000
1.583333 0.109756 0.000000 -0.000000 0.900000 0.000000
1.710000 0.109756 0.000000 -0.000000 0.900000 0.000000
1.836667 0.109756 0.000000 -0.000000 0.900000 0.000000
1.963333 0.109756 0.000000 -0.000000 0.900000 0.000000
2.090000 0.109756 0.000000 0.000000 0.900000 0.000000
2.216667 0.109756 0.000000 -0.000000 0.900000 0.000000
2.343333 0.109756 0.000000 -0.000000 0.900000 0.000000
2.470000 0.109756 0.000000 -0.000000 0.900000 0.000000
2.596667 0.109756 0.000000 -0.000000 0.900000 0.000000
2.723333 0.109756 0.000000 0.000000 0.900000 0.000000
2.850000 0.109756 0.000000 0.000000 0.900000 0.000000
2.976667 0.109756 0.000000 -0.000000 0.900000 0.000000
3.103333 0.109756 0.000000 0.000000 0.900000 0.000000
3.230000 0.109756 0.000000 -0.000000 0.900000 0.000000
3.356667 0.109756 0.000000 -0.000000 0.900000 0.000000
3.483333 0.109756 0.000000 0.000000 0.900000 0.000000
3.610000 0.109756 0.000000 0.000000 0.900000 0.000000
3.736667 0.109756 0.000000 0.000000 0.000000 0.000000
0.063333 0.124390 0.000000 0.000000 0.000000 0.000000
0.190000 0.124390 -0.000000 -0.000000 0.900000 0.000000
0.316667 0.124390 -0.000000 -0.000000 0.900000 0.000000
0.443333 0.124390 -0.000000 -0.000000 0.900000 0.000000
0.570000 0.124390 0.000000 0.000000 0.900000 0.000000
0.696667 0.124390 0.000000 0.000000 0.900000 0.000000
0.823333 0.124390 0.000000 -0.000000 0.900000 0.000000
0.950000 0.124390 0.000000 -0.000000 0.900000 0.000000
1.076667 0.124390 0.000000 0.000000 0.900000 0.000000
1.203333 0.124390 0.000000 -0.000000 0.900000 0.000000
1.330000 0.124390 0.000000 -0.000000 0.900000 0.000000
1.456667 0.124390 0.000000 -0.000000 0.900000 0.000000
1.583333 0.124390 0.000000 -0.000000 0.900000 0.000000
1.710000 0.124390 0.000000 -0.000000 0.900000 0.000000
1.836667 0.124390 0.000000 -0.000000 0.900000 0.000000
1.963333 0.124390 0.000000 -0.000000 0.900000 0.000000
2.090000 0.124390 0.000000 0.000000 0.900000 0.000000
2.216667 0.124390 0.000000 -0.000000 0.900000 0.000000
2.343333 0.124390 0.000000 -0.000000 0.900000 0.000000
2.470000 0.124390 0.000000 -0.000000 0.900000 0.000000
2.596667 0.124390 0.000000 -0.000000 0.900000 0.000000
2.723333 0.124390 0.000000 0.000000 0.900000 0.000000
2.850000 0.124390 0.000000 0.000000 0.900000 0.000000
2.976667 0.124390 0.000000 -0.000000 0.900000 0.000000
3.103333 0.124390 0.000000 0.000000 0.900000 0.000000
3.230000 0.124390 0.000000 -0.000000 0.899997 0.000000
3.356667 0.124390 0.000000 -0.000000 0.900000 0.000000
3.483333 0.124390 0.000000 0.000000 0.900000 0.000000
3.610000 0.124390 0.000000 0.000000 0.900000 0.000000
3.736667 0.124390 0.000000 0.000000 0.000000 0.000000
0.063333 0.139024 0.000000 0.000000 0.000000 0.000000
0.190000 0.139024 -0.000000 -0.000000 0.900000 0.000000
0.316667 0.139024 -0.000000 -0.000000 0.900000 0.000000
0.443333 0.139024 -0.000000 -0.000000 0.900000 0.000000
0.570000 0.139024 0.000000 0.000000 0.900000 0.000000
0.696667 0.139024 0.000000 0.000000 0.900000 0.000000
0.823333 0.139024 0.000000 -0.000000 0.900000 0.000000
0.950000 0.139024 0.000000 -0.000000 0.900000 0.000000
1.076667 0.139024 0.000000 0.000000 0.900000 0.000000
1.203333 0.139024 0.000000 -0.000000 0.900000 0.000000
1.330000 0.139024 0.000000 -0.000000 0.900000 0.000000
1.456667 0.139024 0.000000 -0.000000 0.900000 0.000000
1.583333 0.139024 0.000000 -0.000000 0.900000 0.000000
1.710000 0.139024 0.000000 -0.000000 0.900000 0.000000
1.836667 0.139024 0.000000 -0.000000 0.900000 0.000000
1.963333 0.139024 0.000000 -0.000000 0.900000 0.000000
2.090000 0.139024 0.000000 -0.000000 0.900000 0.000000
2.216667 0.139024 0.000000 -0.000000 0.900000 0.000000
2.343333 0.139024 0.000000 -0.000000 0.900000 0.000000
2.470000 0.139024 0.000000 -0.000000 0.900000 0.000000
2.596667 0.139024 0.000000 -0.000000 0.900000 0.000000
2.723333 0.139024 0.000000 0.000000 0.900000 0.000000
2.850000 0.139024 0.000000 0.000000 0.900000 0.000000
2.976667 0.139024 0.000000 -0.000000 0.899999 0.000000
3.103333 0.139024 0.000001 0.000000 0.899994 0.000001
3.230000 0.139024 0.000005 -0.000001 0.899942 0.000005
3.356667 0.139024 0.000001 0.000000 0.899990 0.000001
3.483333 0.139024 0.000000 0.000000 0.900000 0.000000
3.610000 0.139024 0.000000 0.000000 0.900000 0.000000
3.736667 0.139024 0.000000 0.000000 0.000000 0.000000
0.063333 0.153659 0.000000 0.000000 0.000000 0.000000
0.190000 0.153659 -0.000000 -0.000000 0.900000 0.000000
0.316667 0.153659 -0.000000 -0.000000 0.900000 0.000000
0.443333 0.153659 -0.000000 -0.000000 0.900000 0.000000
0.570000 0.153659 0.000000 0.000000 0.900000 0.000000
0.696667 0.153659 0.000000 0.000000 0.900000 0.000000
0.823333 0.153659 0.000000 -0.000000 0.900000 0.000000
0.950000 0.153659 0.000000 -0.000000 0.900000 0.000000
1.076667 0.153659 0.000000 -0.000000 0.900000 0.000000
1.203333 0.153659 0.000000 -0.000000 0.900000 0.000000
1.330000 0.153659 0.000000 -0.000000 0.900000 0.000000
1.456667 0.153659 0.000000 -0.000000 0.900000 0.000000
1.583333 0.153659 0.000000 -0.000000 0.900000 0.000000
1.710000 0.153659 0.000000 -0.000000 0.900000 0.000000
1.836667 0.153659 0.000000 -0.000000 0.900000 0.000000
1.963333 0.153659 0.000000 -0.000000 0.900000 0.000000
2.090000 0.153659 0.000000 -0.000000 0.900000 0.000000
2.216667 0.153659 0.000000 0.000000 0.900000 0.000000
2.343333 0.153659 0.000000 -0.000000 0.900000 0.000000
2.470000 0.153659 0.000000 -0.000000 0.899997 0.000000
2.596667 0.153659 0.000000 -0.000000 0.899997 0.000000
2.723333 0.153659 0.000000 0.000000 0.900000 0.000000
2.850000 0.153659 0.000000 0.000000 0.900000 0.000000
2.976667 0.153659 0.000004 -0.000000 0.899947 0.000004
3.103333 0.153659 0.000014 0.000001 0.899835 0.000014
3.230000 0.153659 0.000077 -0.000007 0.899027 0.000078
3.356667 0.153659 0.000016 0.000000 0.899755 0.000016
3.483333 0.153659 0.000002 0.000001 0.899968 0.000002
3.610000 0.153659 0.000000 0.000000 0.899998 0.000000
3.736667 0.153659 0.000000 0.000000 0.000000 0.000000
0.063333 0.168293 0.000000 0.000000 0.000000 0.000000
0.190000 0.168293 -0.000000 -0.000000 0.900000 0.000000
0.316667 0.168293 -0.000000 -0.000000 0.900000 0.000000
0.443333 0.168293 -0.000000 -0.000000 0.900000 0.000000
0.570000 0.168293 0.000000 0.000000 0.900000 0.000000
0.696667 0.168293 0.000000 0.000000 0.900000 0.000000
0.823333 0.168293 0.000000 -0.000000 0.900000 0.000000
0.950000 0.168293 0.000000 -0.000000 0.900000 0.000000
1.076667 0.168293 0.000000 -0.000000 0.900000 0.000000
1.203333 0.168293 0.000000 -0.000000 0.900000 0.000000
1.330000 0.168293 0.000000 -0.000000 0.900000 0.000000
1.456667 0.168293 0.000000 -0.000000 0.899999 0.000000
1.583333 0.168293 0.000000 -0.000000 0.900000 0.000000
1.710000 0.168293 0.000000 -0.000000 0.900000 0.000000
1.836667 0.168293 0.000000 -0.000000 0.899998 0.000000
1.963333 0.168293 0.000000 -0.000000 0.899999 0.000000
2.090000 0.168293 0.000000 -0.000000 0.900000 0.000000
2.216667 0.168293 0.000000 0.000000 0.900000 0.000000
2.343333 0.168293 0.000000 -0.000000 0.900000 0.000000
2.470000 0.168293 0.000009 -0.000001 0.899894 0.000009
2.596667 0.168293 0.000011 -0.000001 0.899866 0.000011
2.723333 0.168293 0.000000 0.000000 0.899995 0.000000
2.850000 0.168293 0.000000 0.000000 0.900000 0.000000
2.976667 0.168293 0.000121 -0.000009 0.898487 0.000122
3.103333 0.168293 0.000296 0.000007 0.896417 0.000296
3.230000 0.168293 0.001141 -0.000053 0.885395 0.001143
3.356667 0.168293 0.000225 0.000025 0.895087 0.000226
3.483333 0.168293 0.000971 0.001485 0.844971 0.001774
3.610000 0.168293 0.000503 0.005123 0.812120 0.005147
3.736667 0.168293 0.000000 0.000000 0.000000 0.000000
0.063333 0.182927 0.000000 0.000000 0.000000 0.000000
0.190000 0.182927 -0.000000 -0.000000 0.900000 0.000000
0.316667 0.182927 -0.000000 -0.000000 0.900000 0.000000
0.443333 0.182927 -0.000000 -0.000000 0.899998 0.000000
0.570000 0.182927 -0.000000 0.000000 0.900000 0.000000
0.696667 0.182927 0.000000 0.000000 0.900000 0.000000
0.823333 0.182927 0.000000 -0.000000 0.899997 0.000000
0.950000 0.182927 0.000000 -0.000000 0.899998 0.000000
1.076667 0.182927 0.000000 -0.000000 0.900000 0.000000
1.203333 0.182927 0.000000 -0.000000 0.899997 0.000000
1.330000 0.182927 0.000000 -0.000000 0.899995 0.000000
1.456667 0.182927 0.000001 -0.000000 0.899978 0.000001
1.583333 0.182927 0.000000 -0.000000 0.899994 0.000000
1.710000 0.182927 0.000001 -0.000000 0.899990 0.000001
1.836667 0.182927 0.000005 -0.000001 0.899943 0.000005
1.963333 0.182927 0.000005 -0.000000 0.899943 0.000005
2.090000 0.182927 0.000000 -0.000000 0.899996 0.000000
2.216667 0.182927 0.000000 0.000000 0.899997 0.000000
2.343333 0.182927 0.000001 -0.000000 0.899987 0.000001
2.470000 0.182927 0.000200 -0.000021 0.897543 0.000201
2.596667 0.182927 0.000362 -0.000019 0.895399 0.000363
2.723333 0.182927 0.000023 0.000000 0.899712 0.000023
2.850000 0.182927 0.000015 0.000000 0.899802 0.000015
2.976667 0.182927 0.001068 -0.000057 0.875331 0.001069
3.103333 0.182927 0.001818 0.000084 0.802394 0.001820
3.230000 0.182927 0.001813 0.000017 0.711201 0.001813
3.356667 0.182927 -0.005325 0.003003 0.636165 0.006113
3.483333 0.182927 -0.010204 0.006942 0.653700 0.012342
3.610000 0.182927 -0.004431 0.011701 0.691607 0.012512
3.736667 0.182927 0.000000 0.000000 0.000000 0.000000
0.063333 0.197561 0.000000 0.000000 0.000000 0.000000
0.190000 0.197561 -0.000000 -0.000000 0.900000 0.000000
0.316667 0.197561 -0.000001 -0.000000 0.899976 0.000001
0.443333 0.197561 -0.000001 -0.000000 0.899949 0.000001
0.570000 0.197561 -0.000000 0.000000 0.900000 0.000000
0.696667 0.197561 0.000000 0.000000 0.900000 0.000000
0.823333 0.197561 0.000003 -0.000001 0.899932 0.000003
0.950000 0.197561 0.000003 -0.000001 0.899948 0.000003
1.076667 0.197561 0.000001 -0.000000 0.899982 0.000001
1.203333 0.197561 0.000005 -0.000001 0.899923 0.000005
1.330000 0.197561 0.000009 -0.000001 0.899879 0.000009
1.456667 0.197561 0.000032 -0.000006 0.899538 0.000032
1.583333 0.197561 0.000019 -0.000002 0.899753 0.000019
1.710000 0.197561 0.000038 -0.000004 0.899557 0.000039
1.836667 0.197561 0.000101 -0.000015 0.898752 0.000102
1.963333 0.197561 0.000177 -0.000015 0.897817 0.000177
2.090000 0.197561 0.000055 -0.000001 0.899341 0.000055
2.216667 0.197561 0.000039 0.000000 0.899505 0.000039
2.343333 0.197561 0.000085 -0.000002 0.898749 0.000085
2.470000 0.197561 0.001578 -0.000201 0.865985 0.001591
2.596667 0.197561 0.002277 -0.000345 0.800500 0.002303
2.723333 0.197561 0.002423 0.000179 0.737826 0.002430
2.850000 0.197561 0.001470 0.000891 0.661115 0.001719
2.976667 0.197561 -0.009378 0.001269 0.602248 0.009463
3.103333 0.197561 -0.015828 0.000058 0.605082 0.015828
3.230000 0.197561 -0.015620 0.000853 0.600384 0.015643
3.356667 0.197561 -0.015065 0.004383 0.602922 0.015690
3.483333 0.197561 -0.012724 0.008311 0.606929 0.015198
3.610000 0.197561 -0.005380 0.014124 0.624762 0.015114
3.736667 0.197561 0.000000 0.000000 0.000000 0.000000
0.063333 0.212195 0.000000 0.000000 0.000000 0.000000
0.190000 0.212195 -0.000000 0.000000 0.899987 0.000000
0.316667 0.212195 -0.000018 -0.000005 0.899227 0.000019
0.443333 0.212195 -0.000022 -0.000011 0.898863 0.000024
0.570000 0.212195 -0.000000 0.000000 0.899997 0.000000
0.696667 0.212195 0.000000 0.000000 0.899999 0.000000
0.823333 0.212195 0.000063 -0.000016 0.898762 0.000065
0.950000 0.212195 0.000058 -0.000015 0.898839 0.000060
1.076667 0.212195 0.000035 -0.000006 0.899306 0.000036
1.203333 0.212195 0.000106 -0.000024 0.898360 0.000109
1.330000 0.212195 0.000193 -0.000029 0.897397 0.000195
1.456667 0.212195 0.000534 -0.000100 0.892034 0.000543
1.583333 0.212195 0.000565 -0.000064 0.892512 0.000568
1.710000 0.212195 0.001066 -0.000111 0.887167 0.001072
1.836667 0.212195 0.001398 -0.000201 0.879149 0.001412
1.963333 0.212195 0.001926 -0.000255 0.857694 0.001943
2.090000 0.212195 0.003235 -0.000134 0.797844 0.003238
2.216667 0.212195 0.003596 0.000024 0.728223 0.003596
2.343333 0.212195 0.000631 0.000112 0.653383 0.000641
2.470000 0.212195 -0.006196 -0.000315 0.600684 0.006204
2.596667 0.212195 -0.011630 -0.000896 0.600261 0.011664
2.723333 0.212195 -0.012840 0.000479 0.604859 0.012849
2.850000 0.212195 -0.012136 0.001186 0.602538 0.012194
2.976667 0.212195 -0.014773 0.002410 0.600071 0.014968
3.103333 0.212195 -0.016431 -0.000162 0.600032 0.016432
3.230000 0.212195 -0.015853 0.001321 0.600004 0.015908
3.356667 0.212195 -0.014487 0.004483 0.600148 0.015165
3.483333 0.212195 -0.011834 0.008317 0.600628 0.014464
3.610000 0.212195 -0.005100 0.013887 0.604521 0.014794
3.736667 0.212195 0.000000 0.000000 0.000000 0.000000
0.063333 0.226829 0.000000 0.000000 0.000000 0.000000
0.190000 0.226829 -0.000017 0.000004 0.898838 0.000018
0.316667 0.226829 -0.000391 -0.000109 0.885030 0.000406
0.443333 0.226829 -0.000287 -0.000166 0.883386 0.000331
0.570000 0.226829 -0.000001 -0.000000 0.899431 0.000001
0.696667 0.226829 0.000002 0.000000 0.899946 0.000002
0.823333 0.226829 0.000912 -0.000200 0.882434 0.000934
0.950000 0.226829 0.001000 -0.000231 0.880668 0.001026
1.076667 0.226829 0.000816 -0.000164 0.884365 0.000832
1.203333 0.226829 0.001325 -0.000300 0.875563 0.001359
1.330000 0.226829 0.002097 -0.000505 0.852897 0.002157
1.456667 0.226829 0.002580 -0.001086 0.802650 0.002799
1.583333 0.226829 0.004267 -0.001159 0.755416 0.004421
1.710000 0.226829 0.006294 -0.001646 0.694815 0.006505
1.836667 0.226829 0.003150 -0.001553 0.633995 0.003512
1.963333 0.226829 -0.003266 -0.000861 0.601795 0.003378
2.090000 0.226829 -0.007115 -0.000239 0.603453 0.007119
2.216667 0.226829 -0.009547 0.000168 0.602182 0.009548
2.343333 0.226829 -0.011916 0.000593 0.600938 0.011931
2.470000 0.226829 -0.011388 0.000256 0.600004 0.011391
2.596667 0.226829 -0.011341 -0.000880 0.600004 0.011375
2.723333 0.226829 -0.012655 0.000818 0.600144 0.012682
2.850000 0.226829 -0.012815 0.000945 0.600061 0.012850
2.976667 0.226829 -0.015232 0.002644 0.600002 0.015459
3.103333 0.226829 -0.016450 -0.000303 0.600000 0.016453
3.230000 0.226829 -0.015725 0.001672 0.600000 0.015814
3.356667 0.226829 -0.014073 0.004493 0.600006 0.014773
3.483333 0.226829 -0.011015 0.008094 0.600044 0.013669
3.610000 0.226829 -0.004578 0.012926 0.600591 0.013713
3.736667 0.226829 0.000000 0.000000 0.000000 0.000000
0.063333 0.241463 0.000000 0.000000 0.000000 0.000000
0.190000 0.241463 -0.001101 0.000905 0.746070 0.001425
0.316667 0.241463 -0.002077 -0.001071 0.762055 0.002336
0.443333 0.241463 -0.001601 -0.001306 0.772951 0.002066
0.570000 0.241463 -0.000380 -0.000181 0.792314 0.000421
0.696667 0.241463 0.001963 0.000212 0.790550 0.001974
0.823333 0.241463 0.004166 -0.001528 0.739724 0.004437
0.950000 0.241463 0.004904 -0.002048 0.702384 0.005314
1.076667 0.241463 0.004395 -0.002373 0.670604 0.004995
1.203333 0.241463 0.004527 -0.002323 0.624800 0.005088
1.330000 0.241463 0.001039 -0.002344 0.603083 0.002564
1.456667 0.241463 -0.005535 -0.002834 0.601242 0.006218
1.583333 0.241463 -0.004502 -0.001822 0.601662 0.004857
1.710000 0.241463 -0.004840 -0.002095 0.600489 0.005273
1.836667 0.241463 -0.006280 -0.001183 0.600141 0.006390
1.963333 0.241463 -0.005745 -0.000367 0.600018 0.005757
2.090000 0.241463 -0.006794 -0.000121 0.600061 0.006795
2.216667 0.241463 -0.009433 0.000342 0.600027 0.009439
2.343333 0.241463 -0.011856 0.000764 0.600020 0.011880
2.470000 0.241463 -0.011732 0.000129 0.600000 0.011732
2.596667 0.241463 -0.011421 -0.001016 0.600000 0.011466
2.723333 0.241463 -0.012233 0.001316 0.600004 0.012304
2.850000 0.241463 -0.012995 0.000900 0.600001 0.013026
2.976667 0.241463 -0.015484 0.002766 0.600000 0.015729
3.103333 0.241463 -0.016113 -0.000505 0.600000 0.016121
3.230000 0.241463 -0.015257 0.001935 0.600000 0.015379
3.356667 0.241463 -0.013717 0.004477 0.600000 0.014429
3.483333 0.241463 -0.010269 0.007779 0.600003 0.012883
3.610000 0.241463 -0.004040 0.011933 0.600058 0.012599
3.736667 0.241463 0.000000 0.000000 0.000000 0.000000
0.063333 0.256098 0.000000 0.000000 0.000000 0.000000
0.190000 0.256098 -0.000123 0.001872 0.612107 0.001876
0.316667 0.256098 -0.002122 -0.002102 0.600013 0.002987
0.443333 0.256098 -0.004078 -0.002916 0.600035 0.005014
0.570000 0.256098 -0.002935 -0.000535 0.602589 0.002983
0.696667 0.256098 -0.000064 0.000291 0.612373 0.000298
0.823333 0.256098 -0.000425 -0.002155 0.600105 0.002197
0.950000 0.256098 -0.000425 -0.002557 0.600092 0.002593
1.076667 0.256098 -0.002446 -0.002714 0.600391 0.003653
1.203333 0.256098 -0.000589 -0.001916 0.600116 0.002004
1.330000 0.256098 -0.000436 -0.001501 0.600015 0.001563
1.456667 0.256098 -0.005750 -0.002310 0.600009 0.006196
1.583333 0.256098 -0.004499 -0.001019 0.600022 0.004613
1.710000 0.256098 -0.005732 -0.001665 0.600002 0.005969
1.836667 0.256098 -0.007152 -0.001329 0.600000 0.007275
1.963333 0.256098 -0.006238 -0.000284 0.600000 0.006244
2.090000 0.256098 -0.008097 0.000053 0.600001 0.008097
2.216667 0.256098 -0.010755 0.000507 0.600000 0.010767
2.343333 0.256098 -0.012737 0.000930 0.600000 0.012771
2.470000 0.256098 -0.012255 0.000042 0.600000 0.012255
2.596667 0.256098 -0.011827 -0.001232 0.600000 0.011891
2.723333 0.256098 -0.012987 0.001694 0.600000 0.013097
2.850000 0.256098 -0.013103 0.001002 0.600000 0.013142
2.976667 0.256098 -0.015203 0.002905 0.600000 0.015478
3.103333 0.256098 -0.015730 -0.000846 0.600000 0.015752
3.230000 0.256098 -0.014697 0.002154 0.600000 0.014854
3.356667 0.256098 -0.013419 0.004455 0.600000 0.014139
3.483333 0.256098 -0.009919 0.007432 0.600000 0.012394
3.610000 0.256098 -0.003866 0.011006 0.600004 0.011665
3.736667 0.256098 0.000000 0.000000 0.000000 0.000000
0.063333 0.270732 0.000000 0.000000 0.000000 0.000000
0.190000 0.270732 -0.000771 0.001964 0.600512 0.002110
0.316667 0.270732 -0.002984 -0.001757 0.600000 0.003463
0.443333 0.270732 -0.004236 -0.002670 0.600000 0.005007
0.570000 0.270732 -0.002749 -0.000486 0.600021 0.002792