TITLE="(Vx,Vy)"
VARIABLES=X,Y,Vx,Vy,Vm,V
ZONE T="T-Dummy" I=30, J=41, F=POINT
0.063333 0.007317 0.000000 0.000000 0.000000 0.000000
0.190000 0.007317 0.000000 0.000000 0.000000 0.000000
0.316667 0.007317 0.000000 0.000000 0.000000 0.000000
0.443333 0.007317 0.000000 0.000000 0.000000 0.000000
0.570000 0.007317 0.000000 0.000000 0.000000 0.000000
0.696667 0.007317 0.000000 0.000000 0.000000 0.000000
0.823333 0.007317 0.000000 0.000000 0.000000 0.000000
0.950000 0.007317 0.000000 0.000000 0.000000 0.000000
1.076667 0.007317 0.000000 0.000000 0.000000 0.000000
1.203333 0.007317 0.000000 0.000000 0.000000 0.000000
1.330000 0.007317 0.000000 0.000000 0.000000 0.000000
1.456667 0.007317 0.000000 0.000000 0.000000 0.000000
1.583333 0.007317 0.000000 0.000000 0.000000 0.000000
1.710000 0.007317 0.000000 0.000000 0.000000 0.000000
1.836667 0.007317 0.000000 0.000000 0.000000 0.000000
1.963333 0.007317 0.000000 0.000000 0.000000 0.000000
2.090000 0.007317 0.000000 0.000000 0.000000 0.000000
2.216667 0.007317 0.000000 0.000000 0.000000 0.000000
2.343333 0.007317 0.000000 0.000000 0.000000 0.000000
2.470000 0.007317 0.000000 0.000000 0.000000 0.000000
2.596667 0.007317 0.000000 0.000000 0.000000 0.000000
2.723333 0.007317 0.000000 0.000000 0.000000 0.000000
2.850000 0.007317 0.000000 0.000000 0.000000 0.000000
2.976667 0.007317 0.000000 0.000000 0.000000 0.000000
3.103333 0.007317 0.000000 0.000000 0.000000 0.000000
3.230000 0.007317 0.000000 0.000000 0.000000 0.000000
3.356667 0.007317 0.000000 0.000000 0.000000 0.000000
3.483333 0.007317 0.000000 0.000000 0.000000 0.000000
3.610000 0.007317 0.000000 0.000000 0.000000 0.000000
3.736667 0.007317 0.000000 0.000000 0.000000 0.000000
0.063333 0.021951 0.000000 0.000000 0.000000 0.000000
0.190000 0.021951 0.000000 -0.000000 0.900000 0.000000
0.316667 0.021951 0.000000 0.000000 0.900000 0.000000
0.443333 0.021951 0.000000 -0.000000 0.900000 0.000000
0.570000 0.021951 -0.000000 0.000000 0.900000 0.000000
0.696667 0.021951 -0.000000 -0.000000 0.900000 0.000000
0.823333 0.021951 -0.000000 -0.000000 0.900000 0.000000
0.950000 0.021951 -0.000000 -0.000000 0.900000 0.000000
1.076667 0.021951 0.000000 -0.000000 0.900000 0.000000
1.203333 0.021951 0.000000 0.000000 0.900000 0.000000
1.330000 0.021951 0.000000 -0.000000 0.900000 0.000000
1.456667 0.021951 0.000000 -0.000000 0.900000 0.000000
1.583333 0.021951 0.000000 -0.000000 0.900000 0.000000
1.710000 0.021951 0.000000 0.000000 0.900000 0.000000
1.836667 0.021951 -0.000000 -0.000000 0.900000 0.000000
1.963333 0.021951 -0.000000 -0.000000 0.900000 0.000000
2.090000 0.021951 -0.000000 -0.000000 0.900000 0.000000
2.216667 0.021951 0.000000 -0.000000 0.900000 0.000000
2.343333 0.021951 0.000000 -0.000000 0.900000 0.000000
2.470000 0.021951 -0.000000 0.000000 0.900000 0.000000
2.596667 0.021951 -0.000000 -0.000000 0.900000 0.000000
2.723333 0.021951 -0.000000 -0.000000 0.900000 0.000000
2.850000 0.021951 0.000000 -0.000000 0.900000 0.000000
2.976667 0.021951 -0.000000 0.000000 0.900000 0.000000
3.103333 0.021951 -0.000000 -0.000000 0.900000 0.000000
3.230000 0.021951 0.000000 -0.000000 0.900000 0.000000
3.356667 0.021951 0.000000 0.000000 0.900000 0.000000
3.483333 0.021951 0.000000 0.000000 0.900000 0.000000
3.610000 0.021951 0.000000 0.000000 0.900000 0.000000
3.736667 0.021951 0.000000 0.000000 0.000000 0.000000
0.063333 0.036585 0.000000 0.000000 0.000000 0.000000
0.190000 0.036585 0.000000 -0.000000 0.900000 0.000000
0.316667 0.036585 0.000000 0.000000 0.900000 0.000000
0.443333 0.036585 0.000000 -0.000000 0.900000 0.000000
0.570000 0.036585 -0.000000 0.000000 0.900000 0.000000
0.696667 0.036585 -0.000000 0.000000 0.900000 0.000000
0.823333 0.036585 -0.000000 -0.000000 0.900000 0.000000
0.950000 0.036585 -0.000000 0.000000 0.900000 0.000000
1.076667 0.036585 -0.000000 -0.000000 0.900000 0.000000
1.203333 0.036585 -0.000000 0.000000 0.900000 0.000000
1.330000 0.036585 0.000000 -0.000000 0.900000 0.000000
1.456667 0.036585 0.000000 -0.000000 0.900000 0.000000
1.583333 0.036585 0.000000 -0.000000 0.900000 0.000000
1.710000 0.036585 0.000000 0.000000 0.900000 0.000000
1.836667 0.036585 0.000000 -0.000000 0.900000 0.000000
1.963333 0.036585 0.000000 -0.000000 0.900000 0.000000
2.090000 0.036585 0.000000 -0.000000 0.900000 0.000000
2.216667 0.036585 0.000000 -0.000000 0.900000 0.000000
2.343333 0.036585 0.000000 -0.000000 0.900000 0.000000
2.470000 0.036585 0.000000 0.000000 0.900000 0.000000
2.596667 0.036585 0.000000 -0.000000 0.900000 0.000000
2.723333 0.036585 0.000000 -0.000000 0.900000 0.000000
2.850000 0.036585 0.000000 -0.000000 0.900000 0.000000
2.976667 0.036585 0.000000 0.000000 0.900000 0.000000
3.103333 0.036585 -0.000000 -0.000000 0.900000 0.000000
3.230000 0.036585 0.000000 -0.000000 0.900000 0.000000
3.356667 0.036585 0.000000 0.000000 0.900000 0.000000
3.483333 0.036585 0.000000 0.000000 0.900000 0.000000
3.610000 0.036585 0.000000 0.000000 0.900000 0.000000
3.736667 0.036585 0.000000 0.000000 0.000000 0.000000
0.063333 0.051220 0.000000 0.000000 0.000000 0.000000
0.190000 0.051220 0.000000 -0.000000 0.900000 0.000000
0.316667 0.051220 0.000000 0.000000 0.900000 0.000000
0.443333 0.051220 0.000000 -0.000000 0.900000 0.000000
0.570000 0.051220 -0.000000 0.000000 0.900000 0.000000
0.696667 0.051220 -0.000000 0.000000 0.900000 0.000000
0.823333 0.051220 -0.000000 -0.000000 0.900000 0.000000
0.950000 0.051220 -0.000000 0.000000 0.900000 0.000000
1.076667 0.051220 -0.000000 -0.000000 0.900000 0.000000
1.203333 0.051220 -0.000000 -0.000000 0.900000 0.000000
1.330000 0.051220 0.000000 -0.000000 0.900000 0.000000
1.456667 0.051220 0.000000 0.000000 0.900000 0.000000
1.583333 0.051220 0.000000 -0.000000 0.900000 0.000000
1.710000 0.051220 0.000000 0.000000 0.900000 0.000000
1.836667 0.051220 0.000000 0.000000 0.900000 0.000000
1.963333 0.051220 0.000000 -0.000000 0.900000 0.000000
2.090000 0.051220 0.000000 -0.000000 0.900000 0.000000
2.216667 0.051220 0.000000 -0.000000 0.900000 0.000000
2.343333 0.051220 0.000000 -0.000000 0.900000 0.000000
2.470000 0.051220 0.000000 0.000000 0.900000 0.000000
2.596667 0.051220 0.000000 -0.000000 0.900000 0.000000
2.723333 0.051220 0.000000 -0.000000 0.900000 0.000000
2.850000 0.051220 0.000000 -0.000000 0.900000 0.000000
2.976667 0.051220 0.000000 0.000000 0.900000 0.000000
3.103333 0.051220 0.000000 -0.000000 0.900000 0.000000
3.230000 0.051220 0.000000 -0.000000 0.900000 0.000000
3.356667 0.051220 0.000000 0.000000 0.900000 0.000000
3.483333 0.051220 0.000000 0.000000 0.900000 0.000000
3.610000 0.051220 0.000000 0.000000 0.900000 0.000000
3.736667 0.051220 0.000000 0.000000 0.000000 0.000000
0.063333 0.065854 0.000000 0.000000 0.000000 0.000000
0.190000 0.065854 0.000000 -0.000000 0.900000 0.000000
0.316667 0.065854 0.000000 0.000000 0.900000 0.000000
0.443333 0.065854 -0.000000 -0.000000 0.900000 0.000000
0.570000 0.065854 -0.000000 0.000000 0.900000 0.000000
0.696667 0.065854 -0.000000 0.000000 0.900000 0.000000
0.823333 0.065854 -0.000000 -0.000000 0.900000 0.000000
0.950000 0.065854 -0.000000 -0.000000 0.900000 0.000000
1.076667 0.065854 -0.000000 -0.000000 0.900000 0.000000
1.203333 0.065854 -0.000000 -0.000000 0.900000 0.000000
1.330000 0.065854 0.000000 -0.000000 0.900000 0.000000
1.456667 0.065854 0.000000 -0.000000 0.900000 0.000000
1.583333 0.065854 0.000000 -0.000000 0.900000 0.000000
1.710000 0.065854 0.000000 0.000000 0.900000 0.000000
1.836667 0.065854 0.000000 0.000000 0.900000 0.000000
1.963333 0.065854 0.000000 -0.000000 0.900000 0.000000
2.090000 0.065854 0.000000 -0.000000 0.900000 0.000000
2.216667 0.065854 0.000000 -0.000000 0.900000 0.000000
2.343333 0.065854 0.000000 -0.000000 0.900000 0.000000
2.470000 0.065854 0.000000 0.000000 0.900000 0.000000
2.596667 0.065854 0.000000 -0.000000 0.900000 0.000000
2.723333 0.065854 0.000000 -0.000000 0.900000 0.000000
2.850000 0.065854 0.000000 0.000000 0.900000 0.000000
2.976667 0.065854 0.000000 0.000000 0.900000 0.000000
3.103333 0.065854 0.000000 -0.000000 0.900000 0.000000
3.230000 0.065854 0.000000 -0.000000 0.900000 0.000000
3.356667 0.065854 0.000000 -0.000000 0.900000 0.000000
3.483333 0.065854 0.000000 0.000000 0.900000 0.000000
3.610000 0.065854 0.000000 0.000000 0.900000 0.000000
3.736667 0.065854 0.000000 0.000000 0.000000 0.000000
0.063333 0.080488 0.000000 0.000000 0.000000 0.000000
0.190000 0.080488 -0.000000 -0.000000 0.900000 0.000000
0.316667 0.080488 -0.000000 0.000000 0.900000 0.000000
0.443333 0.080488 -0.000000 -0.000000 0.900000 0.000000
0.570000 0.080488 -0.000000 0.000000 0.900000 0.000000
0.696667 0.080488 -0.000000 0.000000 0.900000 0.000000
0.823333 0.080488 -0.000000 -0.000000 0.900000 0.000000
0.950000 0.080488 -0.000000 -0.000000 0.900000 0.000000
1.076667 0.080488 -0.000000 -0.000000 0.900000 0.000000
1.203333 0.080488 -0.000000 -0.000000 0.900000 0.000000
1.330000 0.080488 0.000000 -0.000000 0.900000 0.000000
1.456667 0.080488 0.000000 -0.000000 0.900000 0.000000
1.583333 0.080488 0.000000 -0.000000 0.900000 0.000000
1.710000 0.080488 0.000000 0.000000 0.900000 0.000000
1.836667 0.080488 0.000000 0.000000 0.900000 0.000000
1.963333 0.080488 0.000000 -0.000000 0.900000 0.000000
2.090000 0.080488 0.000000 -0.000000 0.900000 0.000000
2.216667 0.080488 0.000000 -0.000000 0.900000 0.000000
2.343333 0.080488 0.000000 -0.000000 0.900000 0.000000
2.470000 0.080488 0.000000 0.000000 0.900000 0.000000
2.596667 0.080488 0.000000 -0.000000 0.900000 0.000000
2.723333 0.080488 0.000000 -0.000000 0.900000 0.000000
2.850000 0.080488 0.000000 0.000000 0.900000 0.000000
2.976667 0.080488 0.000000 0.000000 0.900000 0.000000
3.103333 0.080488 0.000000 -0.000000 0.900000 0.000000
3.230000 0.080488 0.000000 -0.000000 0.900000 0.000000
3.356667 0.080488 0.000000 -0.000000 0.900000 0.000000
3.483333 0.080488 0.000000 0.000000 0.900000 0.000000
3.610000 0.080488 0.000000 0.000000 0.900000 0.000000
3.736667 0.080488 0.000000 0.000000 0.000000 0.000000
0.063333 0.095122 0.000000 0.000000 0.000000 0.000000
0.190000 0.095122 -0.000000 -0.000000 0.900000 0.000000
0.316667 0.095122 -0.000000 0.000000 0.900000 0.000000
0.443333 0.095122 -0.000000 -0.000000 0.900000 0.000000
0.570000 0.095122 -0.000000 0.000000 0.900000 0.000000
0.696667 0.095122 -0.000000 0.000000 0.900000 0.000000
0.823333 0.095122 -0.000000 -0.000000 0.900000 0.000000
0.950000 0.095122 -0.000000 -0.000000 0.900000 0.000000
1.076667 0.095122 -0.000000 -0.000000 0.900000 0.000000
1.203333 0.095122 -0.000000 -0.000000 0.900000 0.000000
1.330000 0.095122 0.000000 -0.000000 0.900000 0.000000
1.456667 0.095122 0.000000 -0.000000 0.900000 0.000000
1.583333 0.095122 0.000000 -0.000000 0.900000 0.000000
1.710000 0.095122 0.000000 0.000000 0.900000 0.000000
1.836667 0.095122 0.000000 0.000000 0.900000 0.000000
1.963333 0.095122 0.000000 -0.000000 0.900000 0.000000
2.090000 0.095122 0.000000 -0.000000 0.900000 0.000000
2.216667 0.095122 0.000000 -0.000000 0.900000 0.000000
2.343333 0.095122 0.000000 -0.000000 0.900000 0.000000
2.470000 0.095122 0.000000 0.000000 0.900000 0.000000
2.596667 0.095122 0.000000 -0.000000 0.900000 0.000000
2.723333 0.095122 0.000000 -0.000000 0.900000 0.000000
2.850000 0.095122 0.000000 0.000000 0.900000 0.000000
2.976667 0.095122 0.000000 0.000000 0.900000 0.000000
3.103333 0.095122 0.000000 -0.000000 0.900000 0.000000
3.230000 0.095122 0.000000 -0.000000 0.900000 0.000000
3.356667 0.095122 0.000000 -0.000000 0.900000 0.000000
3.483333 0.095122 0.000000 0.000000 0.900000 0.000000
3.610000 0.095122 0.000000 0.000000 0.900000 0.000000
3.736667 0.095122 0.000000 0.000000 0.000000 0.000000
0.063333 0.109756 0.000000 0.000000 0.000000 0.000000
0.190000 0.109756 -0.000000 -0.000000 0.900000 0.000000
0.316667 0.109756 -0.000000 0.000000 0.900000 0.000000
0.443333 0.109756 -0.000000 -0.000000 0.900000 0.000000
0.570000 0.109756 -0.000000 0.000000 0.900000 0.000000
0.696667 0.109756 -0.000000 0.000000 0.900000 0.000000
0.823333 0.109756 -0.000000 -0.000000 0.900000 0.000000
0.950000 0.109756 -0.000000 -0.000000 0.900000 0.000000
1.076667 0.109756 -0.000000 -0.000000 0.900000 0.000000
1.203333 0.109756 -0.000000 -0.000000 0.900000 0.000000
1.330000 0.109756 0.000000 -0.000000 0.900000 0.000000
1.456667 0.109756 0.000000 -0.000000 0.900000 0.000000
1.583333 0.109756 0.000000 -0.000000 0.900000 0.000000
1.710000 0.109756 0.000000 0.000000 0.900000 0.000000
1.836667 0.109756 0.000000 0.000000 0.900000 0.000000
1.963333 0.109756 0.000000 -0.000000 0.900000 0.000000
2.090000 0.109756 0.000000 -0.000000 0.900000 0.000000
2.216667 0.109756 0.000000 -0.000000 0.900000 0.000000
2.343333 0.109756 0.000000 -0.000000 0.900000 0.000000
2.470000 0.109756 0.000000 0.000000 0.900000 0.000000
2.596667 0.109756 0.000000 -0.000000 0.900000 0.000000
2.723333 0.109756 0.000000 -0.000000 0.900000 0.000000
2.850000 0.109756 0.000000 0.000000 0.900000 0.000000
2.976667 0.109756 0.000000 0.000000 0.900000 0.000000
3.103333 0.109756 0.000000 -0.000000 0.900000 0.000000
3.230000 0.109756 0.000000 -0.000000 0.900000 0.000000
3.356667 0.109756 0.000000 -0.000000 0.900000 0.000000
3.483333 0.109756 0.000000 0.000000 0.900000 0.000000
3.610000 0.109756 0.000000 0.000000 0.900000 0.000000
3.736667 0.109756 0.000000 0.000000 0.000000 0.000000
0.063333 0.124390 0.000000 0.000000 0.000000 0.000000
0.190000 0.124390 -0.000000 -0.000000 0.900000 0.000000
0.316667 0.124390 -0.000000 0.000000 0.900000 0.000000
0.443333 0.124390 -0.000000 -0.000000 0.900000 0.000000
0.570000 0.124390 -0.000000 0.000000 0.900000 0.000000
0.696667 0.124390 -0.000000 0.000000 0.900000 0.000000
0.823333 0.124390 -0.000000 -0.000000 0.900000 0.000000
0.950000 0.124390 -0.000000 -0.000000 0.900000 0.000000
1.076667 0.124390 -0.000000 -0.000000 0.900000 0.000000
1.203333 0.124390 -0.000000 -0.000000 0.900000 0.000000
1.330000 0.124390 0.000000 -0.000000 0.900000 0.000000
1.456667 0.124390 0.000000 -0.000000 0.900000 0.000000
1.583333 0.124390 0.000000 -0.000000 0.900000 0.000000
1.710000 0.124390 0.000000 0.000000 0.900000 0.000000
1.836667 0.124390 0.000000 0.000000 0.900000 0.000000
1.963333 0.124390 0.000000 -0.000000 0.900000 0.000000
2.090000 0.124390 0.000000 -0.000000 0.900000 0.000000
2.216667 0.124390 0.000000 -0.000000 0.900000 0.000000
2.343333 0.124390 0.000000 -0.000000 0.900000 0.000000
2.470000 0.124390 0.000000 0.000000 0.900000 0.000000
2.596667 0.124390 0.000000 -0.000000 0.900000 0.000000
2.723333 0.124390 0.000000 -0.000000 0.900000 0.000000
2.850000 0.124390 0.000000 0.000000 0.900000 0.000000
2.976667 0.124390 0.000000 0.000000 0.900000 0.000000
3.103333 0.124390 0.000000 -0.000000 0.899997 0.000000
3.230000 0.124390 0.000000 -0.000000 0.899998 0.000000
3.356667 0.124390 0.000000 -0.000000 0.900000 0.000000
3.483333 0.124390 0.000000 0.000000 0.900000 0.000000
3.610000 0.124390 0.000000 0.000000 0.900000 0.000000
3.736667 0.124390 0.000000 0.000000 0.000000 0.000000
0.063333 0.139024 0.000000 0.000000 0.000000 0.000000
0.190000 0.139024 -0.000000 -0.000000 0.900000 0.000000
0.316667 0.139024 -0.000000 0.000000 0.900000 0.000000
0.443333 0.139024 -0.000000 -0.000000 0.900000 0.000000
0.570000 0.139024 -0.000000 0.000000 0.900000 0.000000
0.696667 0.139024 -0.000000 0.000000 0.900000 0.000000
0.823333 0.139024 -0.000000 -0.000000 0.900000 0.000000
0.950000 0.139024 -0.000000 -0.000000 0.900000 0.000000
1.076667 0.139024 -0.000000 -0.000000 0.900000 0.000000
1.203333 0.139024 -0.000000 -0.000000 0.900000 0.000000
1.330000 0.139024 0.000000 -0.000000 0.900000 0.000000
1.456667 0.139024 0.000000 -0.000000 0.900000 0.000000
1.583333 0.139024 0.000000 -0.000000 0.900000 0.000000
1.710000 0.139024 0.000000 0.000000 0.900000 0.000000
1.836667 0.139024 0.000000 -0.000000 0.900000 0.000000
1.963333 0.139024 0.000000 -0.000000 0.900000 0.000000
2.090000 0.139024 0.000000 -0.000000 0.900000 0.000000
2.216667 0.139024 0.000000 -0.000000 0.900000 0.000000
2.343333 0.139024 0.000000 -0.000000 0.900000 0.000000
2.470000 0.139024 0.000000 0.000000 0.900000 0.000000
2.596667 0.139024 0.000000 -0.000000 0.900000 0.000000
2.723333 0.139024 0.000000 -0.000000 0.900000 0.000000
2.850000 0.139024 0.000000 0.000000 0.900000 0.000000
2.976667 0.139024 0.000000 0.000000 0.900000 0.000000
3.103333 0.139024 0.000002 -0.000001 0.899971 0.000002
3.230000 0.139024 0.000001 -0.000001 0.899974 0.000002
3.356667 0.139024 0.000000 -0.000000 0.899999 0.000000
3.483333 0.139024 0.000000 0.000000 0.900000 0.000000
3.610000 0.139024 0.000000 0.000000 0.900000 0.000000
3.736667 0.139024 0.000000 0.000000 0.000000 0.000000
0.063333 0.153659 0.000000 0.000000 0.000000 0.000000
0.190000 0.153659 -0.000000 -0.000000 0.900000 0.000000
0.316667 0.153659 -0.000000 0.000000 0.900000 0.000000
0.443333 0.153659 -0.000000 -0.000000 0.899999 0.000000
0.570000 0.153659 -0.000000 0.000000 0.900000 0.000000
0.696667 0.153659 -0.000000 0.000000 0.900000 0.000000
0.823333 0.153659 -0.000000 -0.000000 0.899998 0.000000
0.950000 0.153659 -0.000000 -0.000000 0.899999 0.000000
1.076667 0.153659 -0.000000 -0.000000 0.900000 0.000000
1.203333 0.153659 -0.000000 -0.000000 0.900000 0.000000
1.330000 0.153659 0.000000 -0.000000 0.900000 0.000000
1.456667 0.153659 0.000000 -0.000000 0.900000 0.000000
1.583333 0.153659 0.000000 -0.000000 0.900000 0.000000
1.710000 0.153659 0.000000 -0.000000 0.900000 0.000000
1.836667 0.153659 0.000000 -0.000000 0.900000 0.000000
1.963333 0.153659 0.000000 -0.000000 0.900000 0.000000
2.090000 0.153659 0.000000 -0.000000 0.900000 0.000000
2.216667 0.153659 0.000000 -0.000000 0.900000 0.000000
2.343333 0.153659 0.000000 -0.000000 0.900000 0.000000
2.470000 0.153659 0.000000 0.000000 0.900000 0.000000
2.596667 0.153659 0.000000 -0.000000 0.900000 0.000000
2.723333 0.153659 0.000000 -0.000000 0.900000 0.000000
2.850000 0.153659 0.000000 0.000000 0.900000 0.000000
2.976667 0.153659 0.000000 0.000000 0.900000 0.000000
3.103333 0.153659 0.000016 -0.000006 0.899739 0.000017
3.230000 0.153659 0.000010 -0.000009 0.899754 0.000013
3.356667 0.153659 0.000000 -0.000000 0.899987 0.000000
3.483333 0.153659 0.000000 0.000000 0.900000 0.000000
3.610000 0.153659 0.000000 0.000000 0.900000 0.000000
3.736667 0.153659 0.000000 0.000000 0.000000 0.000000
0.063333 0.168293 0.000000 0.000000 0.000000 0.000000
0.190000 0.168293 -0.000000 -0.000000 0.900000 0.000000
0.316667 0.168293 -0.000000 0.000000 0.900000 0.000000
0.443333 0.168293 -0.000001 -0.000000 0.899993 0.000001
0.570000 0.168293 -0.000000 0.000000 0.900000 0.000000
0.696667 0.168293 -0.000000 0.000000 0.900000 0.000000
0.823333 0.168293 -0.000001 -0.000001 0.899983 0.000002
0.950000 0.168293 -0.000001 -0.000000 0.899988 0.000001
1.076667 0.168293 -0.000000 -0.000000 0.899999 0.000000
1.203333 0.168293 -0.000000 -0.000000 0.899999 0.000000
1.330000 0.168293 0.000000 -0.000000 0.900000 0.000000
1.456667 0.168293 0.000000 -0.000000 0.899999 0.000000
1.583333 0.168293 0.000000 -0.000000 0.900000 0.000000
1.710000 0.168293 0.000000 -0.000000 0.899999 0.000000
1.836667 0.168293 0.000000 -0.000000 0.900000 0.000000
1.963333 0.168293 0.000000 -0.000000 0.900000 0.000000
2.090000 0.168293 0.000000 -0.000000 0.900000 0.000000
2.216667 0.168293 0.000000 -0.000000 0.900000 0.000000
2.343333 0.168293 0.000000 -0.000000 0.900000 0.000000
2.470000 0.168293 0.000000 0.000000 0.900000 0.000000
2.596667 0.168293 0.000000 -0.000000 0.900000 0.000000
2.723333 0.168293 0.000000 -0.000000 0.899997 0.000000
2.850000 0.168293 0.000000 0.000000 0.900000 0.000000
2.976667 0.168293 0.000000 0.000000 0.899999 0.000000
3.103333 0.168293 0.000105 -0.000036 0.898190 0.000111
3.230000 0.168293 0.000078 -0.000058 0.897948 0.000097
3.356667 0.168293 0.000004 -0.000001 0.899754 0.000005
3.483333 0.168293 0.000000 0.000000 0.899998 0.000000
3.610000 0.168293 0.000000 0.000000 0.900000 0.000000
3.736667 0.168293 0.000000 0.000000 0.000000 0.000000
0.063333 0.182927 0.000000 0.000000 0.000000 0.000000
0.190000 0.182927 -0.000000 0.000000 0.900000 0.000000
0.316667 0.182927 -0.000000 0.000000 0.899999 0.000000
0.443333 0.182927 -0.000005 -0.000001 0.899935 0.000006
0.570000 0.182927 -0.000000 0.000000 0.900000 0.000000
0.696667 0.182927 -0.000000 0.000000 0.899999 0.000000
0.823333 0.182927 -0.000011 -0.000006 0.899867 0.000012
0.950000 0.182927 -0.000016 -0.000005 0.899852 0.000017
1.076667 0.182927 -0.000001 -0.000000 0.899985 0.000001
1.203333 0.182927 -0.000001 -0.000001 0.899972 0.000001
1.330000 0.182927 0.000000 -0.000000 0.899989 0.000000
1.456667 0.182927 0.000001 -0.000001 0.899969 0.000001
1.583333 0.182927 0.000000 -0.000000 0.899997 0.000000
1.710000 0.182927 0.000001 -0.000000 0.899981 0.000001
1.836667 0.182927 0.000000 -0.000000 0.899999 0.000000
1.963333 0.182927 0.000000 -0.000000 0.899998 0.000000
2.090000 0.182927 0.000000 -0.000000 0.899995 0.000000
2.216667 0.182927 0.000000 -0.000000 0.899999 0.000000
2.343333 0.182927 0.000000 -0.000000 0.899997 0.000000
2.470000 0.182927 0.000000 0.000000 0.899996 0.000000
2.596667 0.182927 0.000001 -0.000000 0.899986 0.000001
2.723333 0.182927 0.000006 -0.000000 0.899909 0.000006
2.850000 0.182927 0.000000 0.000000 0.899998 0.000000
2.976667 0.182927 0.000002 0.000000 0.899968 0.000002
3.103333 0.182927 0.000558 -0.000147 0.891152 0.000577
3.230000 0.182927 0.000665 -0.000336 0.884761 0.000745
3.356667 0.182927 0.000038 -0.000009 0.896281 0.000039
3.483333 0.182927 0.000001 0.000001 0.899975 0.000001
3.610000 0.182927 0.000010 0.000023 0.899536 0.000025
3.736667 0.182927 0.000000 0.000000 0.000000 0.000000
0.063333 0.197561 0.000000 0.000000 0.000000 0.000000
0.190000 0.197561 -0.000000 0.000000 0.899999 0.000000
0.316667 0.197561 -0.000001 0.000000 0.899975 0.000001
0.443333 0.197561 -0.000049 -0.000010 0.899459 0.000050
0.570000 0.197561 -0.000000 0.000000 0.900000 0.000000
0.696667 0.197561 -0.000000 0.000000 0.899993 0.000000
0.823333 0.197561 -0.000081 -0.000035 0.898999 0.000088
0.950000 0.197561 -0.000150 -0.000046 0.898610 0.000157
1.076667 0.197561 -0.000013 -0.000005 0.899719 0.000014
1.203333 0.197561 -0.000007 -0.000010 0.899589 0.000012
1.330000 0.197561 0.000001 -0.000004 0.899800 0.000005
1.456667 0.197561 0.000011 -0.000010 0.899617 0.000015
1.583333 0.197561 0.000004 -0.000001 0.899913 0.000004
1.710000 0.197561 0.000017 -0.000004 0.899715 0.000017
1.836667 0.197561 0.000003 -0.000000 0.899950 0.000003
1.963333 0.197561 0.000004 -0.000000 0.899914 0.000004
2.090000 0.197561 0.000012 -0.000002 0.899761 0.000012
2.216667 0.197561 0.000003 -0.000000 0.899937 0.000003
2.343333 0.197561 0.000009 -0.000001 0.899842 0.000009
2.470000 0.197561 0.000012 0.000000 0.899772 0.000012
2.596667 0.197561 0.000026 -0.000002 0.899454 0.000026
2.723333 0.197561 0.000149 -0.000004 0.897703 0.000149
2.850000 0.197561 0.000014 0.000001 0.899833 0.000014
2.976667 0.197561 0.000091 0.000004 0.898575 0.000091
3.103333 0.197561 0.002286 -0.000546 0.862178 0.002351
3.230000 0.197561 0.002874 -0.001558 0.814026 0.003269
3.356667 0.197561 -0.001922 0.000012 0.819568 0.001922
3.483333 0.197561 -0.000882 0.003356 0.792456 0.003470
3.610000 0.197561 0.000869 0.006870 0.765722 0.006925
3.736667 0.197561 0.000000 0.000000 0.000000 0.000000
0.063333 0.212195 0.000000 0.000000 0.000000 0.000000
0.190000 0.212195 -0.000001 0.000001 0.899964 0.000001
0.316667 0.212195 -0.000047 0.000001 0.899314 0.000047
0.443333 0.212195 -0.000439 -0.000059 0.895591 0.000443
0.570000 0.212195 -0.000000 0.000000 0.899999 0.000000
0.696667 0.212195 -0.000001 0.000002 0.899943 0.000002
0.823333 0.212195 -0.000530 -0.000188 0.892901 0.000562
0.950000 0.212195 -0.001041 -0.000317 0.889894 0.001088
1.076667 0.212195 -0.000156 -0.000081 0.896033 0.000176
1.203333 0.212195 -0.000058 -0.000102 0.895419 0.000117
1.330000 0.212195 -0.000004 -0.000061 0.897083 0.000062
1.456667 0.212195 0.000085 -0.000074 0.896543 0.000113
1.583333 0.212195 0.000076 -0.000026 0.898358 0.000080
1.710000 0.212195 0.000195 -0.000049 0.896800 0.000202
1.836667 0.212195 0.000084 -0.000010 0.898670 0.000085
1.963333 0.212195 0.000166 -0.000018 0.896761 0.000167
2.090000 0.212195 0.000392 -0.000049 0.892668 0.000395
2.216667 0.212195 0.000255 -0.000022 0.895354 0.000256
2.343333 0.212195 0.000449 -0.000026 0.892536 0.000450
2.470000 0.212195 0.000394 -0.000001 0.892305 0.000394
2.596667 0.212195 0.000407 -0.000038 0.886211 0.000409
2.723333 0.212195 0.002873 -0.000131 0.826926 0.002876
2.850000 0.212195 0.006743 0.000692 0.790328 0.006779
2.976667 0.212195 0.005810 0.000358 0.730212 0.005821
3.103333 0.212195 0.005589 -0.003027 0.656575 0.006356
3.230000 0.212195 0.001415 -0.004876 0.606521 0.005077
3.356667 0.212195 -0.015071 0.001507 0.604324 0.015146
3.483333 0.212195 -0.012066 0.006245 0.643715 0.013586
3.610000 0.212195 -0.003534 0.012027 0.654159 0.012536
3.736667 0.212195 0.000000 0.000000 0.000000 0.000000
0.063333 0.226829 0.000000 0.000000 0.000000 0.000000
0.190000 0.226829 -0.001121 0.001052 0.854045 0.001537
0.316667 0.226829 -0.000822 0.000019 0.885878 0.000822
0.443333 0.226829 -0.003546 -0.000319 0.864483 0.003560
0.570000 0.226829 -0.000008 0.000002 0.899907 0.000008
0.696667 0.226829 -0.000003 0.000005 0.899759 0.000006
0.823333 0.226829 -0.001726 -0.000862 0.856460 0.001929
0.950000 0.226829 -0.003860 -0.001543 0.845266 0.004157
1.076667 0.226829 -0.001197 -0.000748 0.863892 0.001412
1.203333 0.226829 -0.000585 -0.000797 0.860932 0.000988
1.330000 0.226829 -0.000189 -0.000598 0.868524 0.000627
1.456667 0.226829 0.000604 -0.000495 0.869606 0.000781
1.583333 0.226829 0.001258 -0.000335 0.874404 0.001302
1.710000 0.226829 0.002165 -0.000441 0.865219 0.002209
1.836667 0.226829 0.001485 -0.000204 0.870360 0.001499
1.963333 0.226829 0.002124 -0.000433 0.826773 0.002168
2.090000 0.226829 0.004132 -0.000785 0.780054 0.004206
2.216667 0.226829 0.006313 -0.000767 0.741818 0.006359
2.343333 0.226829 0.010055 -0.000828 0.692090 0.010089
2.470000 0.226829 0.009735 -0.000026 0.650587 0.009735
2.596667 0.226829 0.004213 0.000068 0.604955 0.004213
2.723333 0.226829 0.008162 -0.000676 0.600142 0.008190
2.850000 0.226829 0.010790 0.001790 0.613796 0.010937
2.976667 0.226829 -0.000069 0.000341 0.604250 0.000348
3.103333 0.226829 -0.002811 -0.002934 0.600374 0.004063
3.230000 0.226829 -0.003761 -0.005650 0.600007 0.006787
3.356667 0.226829 -0.014359 0.003141 0.600220 0.014698
3.483333 0.226829 -0.013345 0.005588 0.604663 0.014468
3.610000 0.226829 -0.004536 0.012655 0.611015 0.013443
3.736667 0.226829 0.000000 0.000000 0.000000 0.000000
0.063333 0.241463 0.000000 0.000000 0.000000 0.000000
0.190000 0.241463 -0.001710 0.005692 0.669502 0.005943
0.316667 0.241463 -0.007413 0.000885 0.638144 0.007466
0.443333 0.241463 -0.015816 -0.001304 0.688032 0.015870
0.570000 0.241463 -0.009283 0.002480 0.760467 0.009609
0.696667 0.241463 -0.000316 0.001693 0.772493 0.001722
0.823333 0.241463 -0.004617 -0.002992 0.714932 0.005502
0.950000 0.241463 -0.010806 -0.004696 0.705540 0.011782
1.076667 0.241463 -0.007891 -0.003593 0.713242 0.008670
1.203333 0.241463 -0.006379 -0.003944 0.699670 0.007500
1.330000 0.241463 -0.005188 -0.003329 0.689691 0.006164
1.456667 0.241463 -0.000510 -0.003527 0.669983 0.003563
1.583333 0.241463 0.007970 -0.002985 0.647275 0.008511
1.710000 0.241463 0.015268 -0.003143 0.615139 0.015589
1.836667 0.241463 0.012976 -0.001329 0.605056 0.013044
1.963333 0.241463 0.004641 -0.001694 0.600548 0.004940
2.090000 0.241463 0.006042 -0.001981 0.600254 0.006359
2.216667 0.241463 0.006998 -0.001351 0.600827 0.007127
2.343333 0.241463 0.008682 -0.001437 0.600093 0.008800
2.470000 0.241463 0.005045 -0.000032 0.601578 0.005045
2.596667 0.241463 0.000740 0.000452 0.600141 0.000867
2.723333 0.241463 0.006547 -0.000629 0.600002 0.006577
2.850000 0.241463 0.007410 0.002354 0.600949 0.007775
2.976667 0.241463 -0.001572 -0.000439 0.600040 0.001632
3.103333 0.241463 -0.002673 -0.002017 0.600001 0.003349
3.230000 0.241463 -0.003822 -0.007058 0.600000 0.008026
3.356667 0.241463 -0.013863 0.004570 0.600011 0.014596
3.483333 0.241463 -0.012976 0.004705 0.600300 0.013802
3.610000 0.241463 -0.004257 0.011513 0.601485 0.012275
3.736667 0.241463 0.000000 0.000000 0.000000 0.000000
0.063333 0.256098 0.000000 0.000000 0.000000 0.000000
0.190000 0.256098 -0.001683 0.006997 0.610547 0.007197
0.316667 0.256098 -0.003614 0.001156 0.600392 0.003795
0.443333 0.256098 -0.014694 -0.001164 0.601490 0.014740
0.570000 0.256098 -0.014498 0.003305 0.626245 0.014870
0.696667 0.256098 -0.003706 0.002549 0.624994 0.004498
0.823333 0.256098 -0.013959 -0.004486 0.600165 0.014663
0.950000 0.256098 -0.020691 -0.006352 0.600012 0.021644
1.076667 0.256098 -0.017621 -0.005056 0.600241 0.018332
1.203333 0.256098 -0.013999 -0.006288 0.600077 0.015346
1.330000 0.256098 -0.007121 -0.003922 0.600477 0.008129
1.456667 0.256098 -0.001869 -0.005537 0.600625 0.005844
1.583333 0.256098 0.002849 -0.003284 0.600373 0.004347
1.710000 0.256098 0.009413 -0.003298 0.600055 0.009974
1.836667 0.256098 0.008869 -0.000612 0.600058 0.008890
1.963333 0.256098 0.001617 -0.001525 0.600001 0.002223
2.090000 0.256098 0.003114 -0.001978 0.600001 0.003689
2.216667 0.256098 0.003951 -0.001120 0.600015 0.004107
2.343333 0.256098 0.005829 -0.001715 0.600000 0.006075
2.470000 0.256098 0.003942 -0.000211 0.600062 0.003947
2.596667 0.256098 -0.000882 0.000534 0.600004 0.001031
2.723333 0.256098 0.002367 -0.000216 0.600000 0.002377
2.850000 0.256098 0.005120 0.002526 0.600073 0.005710
2.976667 0.256098 -0.004107 -0.001213 0.600001 0.004282
3.103333 0.256098 -0.005666 -0.001385 0.600000 0.005833
3.230000 0.256098 -0.003780 -0.008553 0.600000 0.009351
3.356667 0.256098 -0.013350 0.006021 0.600001 0.014645
3.483333 0.256098 -0.012544 0.003984 0.600014 0.013162
3.610000 0.256098 -0.003908 0.010083 0.600139 0.010814
3.736667 0.256098 0.000000 0.000000 0.000000 0.000000
0.063333 0.270732 0.000000 0.000000 0.000000 0.000000
0.190000 0.270732 -0.002444 0.007060 0.601050 0.007471
0.316667 0.270732 -0.004936 0.000823 0.600002 0.005004
0.443333 0.270732 -0.014840 -0.000587 0.600074 0.014852