TITLE="(Vx,Vy)"
VARIABLES=X,Y,Vx,Vy,Vm,V
ZONE T="T-Dummy" I=30, J=41, F=POINT
0.063333 0.007317 0.000000 0.000000 0.000000 0.000000
0.190000 0.007317 0.000000 0.000000 0.000000 0.000000
0.316667 0.007317 0.000000 0.000000 0.000000 0.000000
0.443333 0.007317 0.000000 0.000000 0.000000 0.000000
0.570000 0.007317 0.000000 0.000000 0.000000 0.000000
0.696667 0.007317 0.000000 0.000000 0.000000 0.000000
0.823333 0.007317 0.000000 0.000000 0.000000 0.000000
0.950000 0.007317 0.000000 0.000000 0.000000 0.000000
1.076667 0.007317 0.000000 0.000000 0.000000 0.000000
1.203333 0.007317 0.000000 0.000000 0.000000 0.000000
1.330000 0.007317 0.000000 0.000000 0.000000 0.000000
1.456667 0.007317 0.000000 0.000000 0.000000 0.000000
1.583333 0.007317 0.000000 0.000000 0.000000 0.000000
1.710000 0.007317 0.000000 0.000000 0.000000 0.000000
1.836667 0.007317 0.000000 0.000000 0.000000 0.000000
1.963333 0.007317 0.000000 0.000000 0.000000 0.000000
2.090000 0.007317 0.000000 0.000000 0.000000 0.000000
2.216667 0.007317 0.000000 0.000000 0.000000 0.000000
2.343333 0.007317 0.000000 0.000000 0.000000 0.000000
2.470000 0.007317 0.000000 0.000000 0.000000 0.000000
2.596667 0.007317 0.000000 0.000000 0.000000 0.000000
2.723333 0.007317 0.000000 0.000000 0.000000 0.000000
2.850000 0.007317 0.000000 0.000000 0.000000 0.000000
2.976667 0.007317 0.000000 0.000000 0.000000 0.000000
3.103333 0.007317 0.000000 0.000000 0.000000 0.000000
3.230000 0.007317 0.000000 0.000000 0.000000 0.000000
3.356667 0.007317 0.000000 0.000000 0.000000 0.000000
3.483333 0.007317 0.000000 0.000000 0.000000 0.000000
3.610000 0.007317 0.000000 0.000000 0.000000 0.000000
3.736667 0.007317 0.000000 0.000000 0.000000 0.000000
0.063333 0.021951 0.000000 0.000000 0.000000 0.000000
0.190000 0.021951 0.000000 -0.000000 0.900000 0.000000
0.316667 0.021951 0.000000 -0.000000 0.900000 0.000000
0.443333 0.021951 0.000000 0.000000 0.900000 0.000000
0.570000 0.021951 0.000000 0.000000 0.900000 0.000000
0.696667 0.021951 -0.000000 -0.000000 0.900000 0.000000
0.823333 0.021951 0.000000 -0.000000 0.900000 0.000000
0.950000 0.021951 -0.000000 0.000000 0.900000 0.000000
1.076667 0.021951 -0.000000 -0.000000 0.900000 0.000000
1.203333 0.021951 0.000000 0.000000 0.900000 0.000000
1.330000 0.021951 0.000000 -0.000000 0.900000 0.000000
1.456667 0.021951 0.000000 0.000000 0.900000 0.000000
1.583333 0.021951 0.000000 -0.000000 0.900000 0.000000
1.710000 0.021951 0.000000 0.000000 0.900000 0.000000
1.836667 0.021951 -0.000000 -0.000000 0.900000 0.000000
1.963333 0.021951 -0.000000 0.000000 0.900000 0.000000
2.090000 0.021951 -0.000000 -0.000000 0.900000 0.000000
2.216667 0.021951 -0.000000 -0.000000 0.900000 0.000000
2.343333 0.021951 0.000000 0.000000 0.900000 0.000000
2.470000 0.021951 -0.000000 0.000000 0.900000 0.000000
2.596667 0.021951 -0.000000 -0.000000 0.900000 0.000000
2.723333 0.021951 -0.000000 0.000000 0.900000 0.000000
2.850000 0.021951 -0.000000 0.000000 0.900000 0.000000
2.976667 0.021951 -0.000000 0.000000 0.900000 0.000000
3.103333 0.021951 -0.000000 -0.000000 0.900000 0.000000
3.230000 0.021951 0.000000 -0.000000 0.900000 0.000000
3.356667 0.021951 0.000000 -0.000000 0.900000 0.000000
3.483333 0.021951 0.000000 0.000000 0.900000 0.000000
3.610000 0.021951 0.000000 0.000000 0.900000 0.000000
3.736667 0.021951 0.000000 0.000000 0.000000 0.000000
0.063333 0.036585 0.000000 0.000000 0.000000 0.000000
0.190000 0.036585 0.000000 -0.000000 0.900000 0.000000
0.316667 0.036585 0.000000 -0.000000 0.900000 0.000000
0.443333 0.036585 0.000000 0.000000 0.900000 0.000000
0.570000 0.036585 -0.000000 0.000000 0.900000 0.000000
0.696667 0.036585 -0.000000 0.000000 0.900000 0.000000
0.823333 0.036585 -0.000000 -0.000000 0.900000 0.000000
0.950000 0.036585 -0.000000 0.000000 0.900000 0.000000
1.076667 0.036585 -0.000000 -0.000000 0.900000 0.000000
1.203333 0.036585 0.000000 0.000000 0.900000 0.000000
1.330000 0.036585 0.000000 -0.000000 0.900000 0.000000
1.456667 0.036585 0.000000 0.000000 0.900000 0.000000
1.583333 0.036585 0.000000 -0.000000 0.900000 0.000000
1.710000 0.036585 0.000000 0.000000 0.900000 0.000000
1.836667 0.036585 0.000000 -0.000000 0.900000 0.000000
1.963333 0.036585 0.000000 0.000000 0.900000 0.000000
2.090000 0.036585 0.000000 -0.000000 0.900000 0.000000
2.216667 0.036585 0.000000 -0.000000 0.900000 0.000000
2.343333 0.036585 0.000000 0.000000 0.900000 0.000000
2.470000 0.036585 0.000000 0.000000 0.900000 0.000000
2.596667 0.036585 0.000000 -0.000000 0.900000 0.000000
2.723333 0.036585 0.000000 0.000000 0.900000 0.000000
2.850000 0.036585 0.000000 0.000000 0.900000 0.000000
2.976667 0.036585 0.000000 -0.000000 0.900000 0.000000
3.103333 0.036585 0.000000 -0.000000 0.900000 0.000000
3.230000 0.036585 0.000000 -0.000000 0.900000 0.000000
3.356667 0.036585 0.000000 -0.000000 0.900000 0.000000
3.483333 0.036585 0.000000 0.000000 0.900000 0.000000
3.610000 0.036585 0.000000 0.000000 0.900000 0.000000
3.736667 0.036585 0.000000 0.000000 0.000000 0.000000
0.063333 0.051220 0.000000 0.000000 0.000000 0.000000
0.190000 0.051220 0.000000 -0.000000 0.900000 0.000000
0.316667 0.051220 0.000000 -0.000000 0.900000 0.000000
0.443333 0.051220 0.000000 0.000000 0.900000 0.000000
0.570000 0.051220 -0.000000 0.000000 0.900000 0.000000
0.696667 0.051220 -0.000000 0.000000 0.900000 0.000000
0.823333 0.051220 -0.000000 -0.000000 0.900000 0.000000
0.950000 0.051220 -0.000000 -0.000000 0.900000 0.000000
1.076667 0.051220 -0.000000 -0.000000 0.900000 0.000000
1.203333 0.051220 -0.000000 0.000000 0.900000 0.000000
1.330000 0.051220 0.000000 -0.000000 0.900000 0.000000
1.456667 0.051220 0.000000 0.000000 0.900000 0.000000
1.583333 0.051220 0.000000 0.000000 0.900000 0.000000
1.710000 0.051220 0.000000 0.000000 0.900000 0.000000
1.836667 0.051220 0.000000 0.000000 0.900000 0.000000
1.963333 0.051220 0.000000 -0.000000 0.900000 0.000000
2.090000 0.051220 0.000000 -0.000000 0.900000 0.000000
2.216667 0.051220 0.000000 -0.000000 0.900000 0.000000
2.343333 0.051220 0.000000 -0.000000 0.900000 0.000000
2.470000 0.051220 0.000000 0.000000 0.900000 0.000000
2.596667 0.051220 0.000000 -0.000000 0.900000 0.000000
2.723333 0.051220 0.000000 0.000000 0.900000 0.000000
2.850000 0.051220 0.000000 0.000000 0.900000 0.000000
2.976667 0.051220 0.000000 -0.000000 0.900000 0.000000
3.103333 0.051220 0.000000 -0.000000 0.900000 0.000000
3.230000 0.051220 0.000000 -0.000000 0.900000 0.000000
3.356667 0.051220 0.000000 -0.000000 0.900000 0.000000
3.483333 0.051220 0.000000 0.000000 0.900000 0.000000
3.610000 0.051220 0.000000 0.000000 0.900000 0.000000
3.736667 0.051220 0.000000 0.000000 0.000000 0.000000
0.063333 0.065854 0.000000 0.000000 0.000000 0.000000
0.190000 0.065854 0.000000 -0.000000 0.900000 0.000000
0.316667 0.065854 0.000000 -0.000000 0.900000 0.000000
0.443333 0.065854 0.000000 0.000000 0.900000 0.000000
0.570000 0.065854 -0.000000 0.000000 0.900000 0.000000
0.696667 0.065854 -0.000000 0.000000 0.900000 0.000000
0.823333 0.065854 -0.000000 -0.000000 0.900000 0.000000
0.950000 0.065854 -0.000000 -0.000000 0.900000 0.000000
1.076667 0.065854 -0.000000 -0.000000 0.900000 0.000000
1.203333 0.065854 -0.000000 -0.000000 0.900000 0.000000
1.330000 0.065854 0.000000 -0.000000 0.900000 0.000000
1.456667 0.065854 0.000000 0.000000 0.900000 0.000000
1.583333 0.065854 0.000000 0.000000 0.900000 0.000000
1.710000 0.065854 0.000000 0.000000 0.900000 0.000000
1.836667 0.065854 0.000000 0.000000 0.900000 0.000000
1.963333 0.065854 0.000000 -0.000000 0.900000 0.000000
2.090000 0.065854 0.000000 -0.000000 0.900000 0.000000
2.216667 0.065854 0.000000 -0.000000 0.900000 0.000000
2.343333 0.065854 0.000000 -0.000000 0.900000 0.000000
2.470000 0.065854 0.000000 0.000000 0.900000 0.000000
2.596667 0.065854 0.000000 -0.000000 0.900000 0.000000
2.723333 0.065854 0.000000 0.000000 0.900000 0.000000
2.850000 0.065854 0.000000 0.000000 0.900000 0.000000
2.976667 0.065854 0.000000 -0.000000 0.900000 0.000000
3.103333 0.065854 0.000000 -0.000000 0.900000 0.000000
3.230000 0.065854 0.000000 -0.000000 0.900000 0.000000
3.356667 0.065854 0.000000 -0.000000 0.900000 0.000000
3.483333 0.065854 0.000000 0.000000 0.900000 0.000000
3.610000 0.065854 0.000000 0.000000 0.900000 0.000000
3.736667 0.065854 0.000000 0.000000 0.000000 0.000000
0.063333 0.080488 0.000000 0.000000 0.000000 0.000000
0.190000 0.080488 0.000000 -0.000000 0.900000 0.000000
0.316667 0.080488 0.000000 -0.000000 0.900000 0.000000
0.443333 0.080488 0.000000 0.000000 0.900000 0.000000
0.570000 0.080488 -0.000000 0.000000 0.900000 0.000000
0.696667 0.080488 -0.000000 0.000000 0.900000 0.000000
0.823333 0.080488 -0.000000 -0.000000 0.900000 0.000000
0.950000 0.080488 -0.000000 -0.000000 0.900000 0.000000
1.076667 0.080488 -0.000000 -0.000000 0.900000 0.000000
1.203333 0.080488 -0.000000 -0.000000 0.900000 0.000000
1.330000 0.080488 0.000000 -0.000000 0.900000 0.000000
1.456667 0.080488 0.000000 0.000000 0.900000 0.000000
1.583333 0.080488 0.000000 0.000000 0.900000 0.000000
1.710000 0.080488 0.000000 0.000000 0.900000 0.000000
1.836667 0.080488 0.000000 0.000000 0.900000 0.000000
1.963333 0.080488 0.000000 -0.000000 0.900000 0.000000
2.090000 0.080488 0.000000 -0.000000 0.900000 0.000000
2.216667 0.080488 0.000000 -0.000000 0.900000 0.000000
2.343333 0.080488 0.000000 -0.000000 0.900000 0.000000
2.470000 0.080488 0.000000 0.000000 0.900000 0.000000
2.596667 0.080488 0.000000 -0.000000 0.900000 0.000000
2.723333 0.080488 0.000000 -0.000000 0.900000 0.000000
2.850000 0.080488 0.000000 0.000000 0.900000 0.000000
2.976667 0.080488 0.000000 -0.000000 0.900000 0.000000
3.103333 0.080488 0.000000 -0.000000 0.900000 0.000000
3.230000 0.080488 0.000000 -0.000000 0.900000 0.000000
3.356667 0.080488 0.000000 -0.000000 0.900000 0.000000
3.483333 0.080488 0.000000 0.000000 0.900000 0.000000
3.610000 0.080488 0.000000 0.000000 0.900000 0.000000
3.736667 0.080488 0.000000 0.000000 0.000000 0.000000
0.063333 0.095122 0.000000 0.000000 0.000000 0.000000
0.190000 0.095122 0.000000 -0.000000 0.900000 0.000000
0.316667 0.095122 0.000000 -0.000000 0.900000 0.000000
0.443333 0.095122 0.000000 0.000000 0.900000 0.000000
0.570000 0.095122 -0.000000 0.000000 0.900000 0.000000
0.696667 0.095122 -0.000000 0.000000 0.900000 0.000000
0.823333 0.095122 -0.000000 -0.000000 0.900000 0.000000
0.950000 0.095122 -0.000000 -0.000000 0.900000 0.000000
1.076667 0.095122 -0.000000 -0.000000 0.900000 0.000000
1.203333 0.095122 -0.000000 -0.000000 0.900000 0.000000
1.330000 0.095122 0.000000 -0.000000 0.900000 0.000000
1.456667 0.095122 0.000000 0.000000 0.900000 0.000000
1.583333 0.095122 0.000000 0.000000 0.900000 0.000000
1.710000 0.095122 0.000000 0.000000 0.900000 0.000000
1.836667 0.095122 0.000000 0.000000 0.900000 0.000000
1.963333 0.095122 0.000000 -0.000000 0.900000 0.000000
2.090000 0.095122 0.000000 -0.000000 0.900000 0.000000
2.216667 0.095122 0.000000 -0.000000 0.900000 0.000000
2.343333 0.095122 0.000000 -0.000000 0.900000 0.000000
2.470000 0.095122 0.000000 0.000000 0.900000 0.000000
2.596667 0.095122 0.000000 -0.000000 0.900000 0.000000
2.723333 0.095122 0.000000 -0.000000 0.900000 0.000000
2.850000 0.095122 0.000000 0.000000 0.900000 0.000000
2.976667 0.095122 0.000000 -0.000000 0.900000 0.000000
3.103333 0.095122 0.000000 -0.000000 0.900000 0.000000
3.230000 0.095122 0.000000 -0.000000 0.900000 0.000000
3.356667 0.095122 0.000000 -0.000000 0.900000 0.000000
3.483333 0.095122 0.000000 0.000000 0.900000 0.000000
3.610000 0.095122 0.000000 0.000000 0.900000 0.000000
3.736667 0.095122 0.000000 0.000000 0.000000 0.000000
0.063333 0.109756 0.000000 0.000000 0.000000 0.000000
0.190000 0.109756 -0.000000 -0.000000 0.900000 0.000000
0.316667 0.109756 -0.000000 -0.000000 0.900000 0.000000
0.443333 0.109756 -0.000000 0.000000 0.900000 0.000000
0.570000 0.109756 -0.000000 0.000000 0.900000 0.000000
0.696667 0.109756 -0.000000 0.000000 0.900000 0.000000
0.823333 0.109756 -0.000000 -0.000000 0.900000 0.000000
0.950000 0.109756 -0.000000 -0.000000 0.900000 0.000000
1.076667 0.109756 -0.000000 -0.000000 0.900000 0.000000
1.203333 0.109756 -0.000000 -0.000000 0.900000 0.000000
1.330000 0.109756 0.000000 -0.000000 0.900000 0.000000
1.456667 0.109756 0.000000 0.000000 0.900000 0.000000
1.583333 0.109756 0.000000 0.000000 0.900000 0.000000
1.710000 0.109756 0.000000 0.000000 0.900000 0.000000
1.836667 0.109756 0.000000 0.000000 0.900000 0.000000
1.963333 0.109756 0.000000 -0.000000 0.900000 0.000000
2.090000 0.109756 0.000000 -0.000000 0.900000 0.000000
2.216667 0.109756 0.000000 -0.000000 0.900000 0.000000
2.343333 0.109756 0.000000 -0.000000 0.900000 0.000000
2.470000 0.109756 0.000000 0.000000 0.900000 0.000000
2.596667 0.109756 0.000000 -0.000000 0.900000 0.000000
2.723333 0.109756 0.000000 -0.000000 0.900000 0.000000
2.850000 0.109756 0.000000 0.000000 0.900000 0.000000
2.976667 0.109756 0.000000 -0.000000 0.900000 0.000000
3.103333 0.109756 0.000000 0.000000 0.900000 0.000000
3.230000 0.109756 0.000000 -0.000000 0.900000 0.000000
3.356667 0.109756 0.000000 -0.000000 0.900000 0.000000
3.483333 0.109756 0.000000 0.000000 0.900000 0.000000
3.610000 0.109756 0.000000 0.000000 0.900000 0.000000
3.736667 0.109756 0.000000 0.000000 0.000000 0.000000
0.063333 0.124390 0.000000 0.000000 0.000000 0.000000
0.190000 0.124390 -0.000000 -0.000000 0.900000 0.000000
0.316667 0.124390 -0.000000 -0.000000 0.900000 0.000000
0.443333 0.124390 -0.000000 0.000000 0.900000 0.000000
0.570000 0.124390 -0.000000 0.000000 0.900000 0.000000
0.696667 0.124390 -0.000000 0.000000 0.900000 0.000000
0.823333 0.124390 -0.000000 -0.000000 0.900000 0.000000
0.950000 0.124390 -0.000000 -0.000000 0.900000 0.000000
1.076667 0.124390 -0.000000 -0.000000 0.900000 0.000000
1.203333 0.124390 0.000000 -0.000000 0.900000 0.000000
1.330000 0.124390 0.000000 -0.000000 0.900000 0.000000
1.456667 0.124390 0.000000 0.000000 0.900000 0.000000
1.583333 0.124390 0.000000 0.000000 0.900000 0.000000
1.710000 0.124390 0.000000 0.000000 0.900000 0.000000
1.836667 0.124390 0.000000 -0.000000 0.900000 0.000000
1.963333 0.124390 0.000000 -0.000000 0.900000 0.000000
2.090000 0.124390 0.000000 -0.000000 0.900000 0.000000
2.216667 0.124390 0.000000 -0.000000 0.900000 0.000000
2.343333 0.124390 0.000000 -0.000000 0.900000 0.000000
2.470000 0.124390 0.000000 0.000000 0.900000 0.000000
2.596667 0.124390 0.000000 -0.000000 0.900000 0.000000
2.723333 0.124390 0.000000 -0.000000 0.900000 0.000000
2.850000 0.124390 0.000000 0.000000 0.900000 0.000000
2.976667 0.124390 0.000000 -0.000000 0.900000 0.000000
3.103333 0.124390 0.000000 0.000000 0.900000 0.000000
3.230000 0.124390 0.000000 -0.000000 0.900000 0.000000
3.356667 0.124390 0.000000 -0.000000 0.900000 0.000000
3.483333 0.124390 0.000000 0.000000 0.900000 0.000000
3.610000 0.124390 0.000000 0.000000 0.900000 0.000000
3.736667 0.124390 0.000000 0.000000 0.000000 0.000000
0.063333 0.139024 0.000000 0.000000 0.000000 0.000000
0.190000 0.139024 -0.000000 -0.000000 0.900000 0.000000
0.316667 0.139024 -0.000000 -0.000000 0.900000 0.000000
0.443333 0.139024 -0.000000 0.000000 0.900000 0.000000
0.570000 0.139024 -0.000000 0.000000 0.900000 0.000000
0.696667 0.139024 -0.000000 0.000000 0.900000 0.000000
0.823333 0.139024 -0.000000 -0.000000 0.900000 0.000000
0.950000 0.139024 -0.000000 -0.000000 0.900000 0.000000
1.076667 0.139024 -0.000000 -0.000000 0.900000 0.000000
1.203333 0.139024 -0.000000 -0.000000 0.900000 0.000000
1.330000 0.139024 0.000000 -0.000000 0.900000 0.000000
1.456667 0.139024 0.000000 0.000000 0.900000 0.000000
1.583333 0.139024 0.000000 0.000000 0.900000 0.000000
1.710000 0.139024 0.000000 -0.000000 0.900000 0.000000
1.836667 0.139024 0.000000 -0.000000 0.900000 0.000000
1.963333 0.139024 0.000000 -0.000000 0.900000 0.000000
2.090000 0.139024 0.000000 -0.000000 0.900000 0.000000
2.216667 0.139024 0.000000 -0.000000 0.900000 0.000000
2.343333 0.139024 0.000000 0.000000 0.900000 0.000000
2.470000 0.139024 0.000000 0.000000 0.900000 0.000000
2.596667 0.139024 0.000000 -0.000000 0.900000 0.000000
2.723333 0.139024 0.000000 -0.000000 0.900000 0.000000
2.850000 0.139024 0.000000 0.000000 0.900000 0.000000
2.976667 0.139024 0.000000 -0.000000 0.900000 0.000000
3.103333 0.139024 0.000000 0.000000 0.900000 0.000000
3.230000 0.139024 0.000000 -0.000000 0.900000 0.000000
3.356667 0.139024 0.000000 -0.000000 0.899998 0.000000
3.483333 0.139024 0.000000 0.000000 0.900000 0.000000
3.610000 0.139024 0.000000 0.000000 0.900000 0.000000
3.736667 0.139024 0.000000 0.000000 0.000000 0.000000
0.063333 0.153659 0.000000 0.000000 0.000000 0.000000
0.190000 0.153659 -0.000000 -0.000000 0.900000 0.000000
0.316667 0.153659 -0.000000 -0.000000 0.900000 0.000000
0.443333 0.153659 -0.000000 0.000000 0.900000 0.000000
0.570000 0.153659 -0.000000 0.000000 0.900000 0.000000
0.696667 0.153659 0.000000 0.000000 0.900000 0.000000
0.823333 0.153659 -0.000000 -0.000000 0.900000 0.000000
0.950000 0.153659 -0.000000 -0.000000 0.899999 0.000000
1.076667 0.153659 -0.000000 -0.000000 0.900000 0.000000
1.203333 0.153659 -0.000000 -0.000000 0.900000 0.000000
1.330000 0.153659 0.000000 -0.000000 0.900000 0.000000
1.456667 0.153659 0.000000 0.000000 0.900000 0.000000
1.583333 0.153659 0.000000 -0.000000 0.900000 0.000000
1.710000 0.153659 0.000000 -0.000000 0.899996 0.000000
1.836667 0.153659 0.000000 -0.000000 0.900000 0.000000
1.963333 0.153659 0.000000 -0.000000 0.900000 0.000000
2.090000 0.153659 0.000000 -0.000000 0.900000 0.000000
2.216667 0.153659 0.000000 -0.000000 0.900000 0.000000
2.343333 0.153659 0.000000 0.000000 0.900000 0.000000
2.470000 0.153659 0.000000 0.000000 0.900000 0.000000
2.596667 0.153659 0.000000 -0.000000 0.900000 0.000000
2.723333 0.153659 0.000000 -0.000000 0.900000 0.000000
2.850000 0.153659 0.000000 0.000000 0.900000 0.000000
2.976667 0.153659 0.000000 -0.000000 0.899999 0.000000
3.103333 0.153659 0.000000 0.000000 0.900000 0.000000
3.230000 0.153659 0.000000 -0.000000 0.899998 0.000000
3.356667 0.153659 0.000001 -0.000001 0.899966 0.000002
3.483333 0.153659 0.000000 0.000000 0.900000 0.000000
3.610000 0.153659 0.000000 0.000000 0.900000 0.000000
3.736667 0.153659 0.000000 0.000000 0.000000 0.000000
0.063333 0.168293 0.000000 0.000000 0.000000 0.000000
0.190000 0.168293 -0.000000 -0.000000 0.900000 0.000000
0.316667 0.168293 -0.000000 -0.000000 0.899993 0.000000
0.443333 0.168293 -0.000000 0.000000 0.900000 0.000000
0.570000 0.168293 -0.000000 0.000000 0.900000 0.000000
0.696667 0.168293 0.000000 0.000000 0.900000 0.000000
0.823333 0.168293 -0.000000 -0.000000 0.900000 0.000000
0.950000 0.168293 -0.000001 -0.000001 0.899983 0.000001
1.076667 0.168293 -0.000000 -0.000000 0.900000 0.000000
1.203333 0.168293 -0.000000 -0.000000 0.900000 0.000000
1.330000 0.168293 0.000000 -0.000000 0.900000 0.000000
1.456667 0.168293 0.000000 0.000000 0.899999 0.000000
1.583333 0.168293 0.000000 -0.000000 0.899994 0.000000
1.710000 0.168293 0.000000 -0.000001 0.899951 0.000001
1.836667 0.168293 0.000000 -0.000000 0.900000 0.000000
1.963333 0.168293 0.000000 -0.000000 0.900000 0.000000
2.090000 0.168293 0.000000 -0.000000 0.899999 0.000000
2.216667 0.168293 0.000000 -0.000000 0.900000 0.000000
2.343333 0.168293 0.000000 0.000000 0.900000 0.000000
2.470000 0.168293 0.000000 0.000000 0.899999 0.000000
2.596667 0.168293 0.000000 -0.000000 0.899999 0.000000
2.723333 0.168293 0.000000 -0.000000 0.899999 0.000000
2.850000 0.168293 0.000000 0.000000 0.900000 0.000000
2.976667 0.168293 0.000002 -0.000000 0.899986 0.000002
3.103333 0.168293 0.000001 0.000000 0.899996 0.000001
3.230000 0.168293 0.000003 -0.000000 0.899971 0.000003
3.356667 0.168293 0.000011 -0.000009 0.899644 0.000015
3.483333 0.168293 0.000000 0.000000 0.900000 0.000000
3.610000 0.168293 0.000000 0.000000 0.900000 0.000000
3.736667 0.168293 0.000000 0.000000 0.000000 0.000000
0.063333 0.182927 0.000000 0.000000 0.000000 0.000000
0.190000 0.182927 -0.000000 -0.000000 0.899999 0.000000
0.316667 0.182927 -0.000005 -0.000002 0.899907 0.000005
0.443333 0.182927 -0.000000 0.000000 0.900000 0.000000
0.570000 0.182927 -0.000000 0.000000 0.900000 0.000000
0.696667 0.182927 0.000000 0.000000 0.900000 0.000000
0.823333 0.182927 -0.000000 -0.000000 0.899996 0.000000
0.950000 0.182927 -0.000009 -0.000006 0.899835 0.000011
1.076667 0.182927 -0.000000 -0.000000 0.899992 0.000000
1.203333 0.182927 -0.000000 -0.000000 0.899991 0.000000
1.330000 0.182927 0.000000 -0.000000 0.899996 0.000000
1.456667 0.182927 0.000000 0.000000 0.899990 0.000000
1.583333 0.182927 0.000002 -0.000002 0.899914 0.000003
1.710000 0.182927 0.000003 -0.000009 0.899585 0.000010
1.836667 0.182927 0.000000 -0.000000 0.899998 0.000000
1.963333 0.182927 0.000000 -0.000000 0.900000 0.000000
2.090000 0.182927 0.000000 -0.000000 0.899984 0.000000
2.216667 0.182927 0.000001 -0.000000 0.899981 0.000001
2.343333 0.182927 0.000000 0.000000 0.900000 0.000000
2.470000 0.182927 0.000001 0.000000 0.899983 0.000001
2.596667 0.182927 0.000002 -0.000000 0.899971 0.000002
2.723333 0.182927 0.000002 -0.000000 0.899976 0.000002
2.850000 0.182927 0.000000 0.000000 0.899999 0.000000
2.976667 0.182927 0.000039 -0.000003 0.899742 0.000039
3.103333 0.182927 0.000009 0.000000 0.899938 0.000009
3.230000 0.182927 0.000048 -0.000003 0.899585 0.000048
3.356667 0.182927 0.000067 -0.000050 0.897625 0.000083
3.483333 0.182927 -0.000000 0.000000 0.900000 0.000000
3.610000 0.182927 0.000000 0.000000 0.900000 0.000000
3.736667 0.182927 0.000000 0.000000 0.000000 0.000000
0.063333 0.197561 0.000000 0.000000 0.000000 0.000000
0.190000 0.197561 -0.000000 0.000000 0.899977 0.000000
0.316667 0.197561 -0.000064 -0.000015 0.898938 0.000066
0.443333 0.197561 -0.000000 0.000000 0.899995 0.000000
0.570000 0.197561 -0.000000 0.000000 0.900000 0.000000
0.696667 0.197561 0.000000 0.000000 0.900000 0.000000
0.823333 0.197561 0.000000 -0.000000 0.899985 0.000000
0.950000 0.197561 -0.000054 -0.000045 0.898689 0.000070
1.076667 0.197561 -0.000008 -0.000003 0.899773 0.000008
1.203333 0.197561 0.000000 -0.000003 0.899843 0.000003
1.330000 0.197561 0.000001 -0.000001 0.899923 0.000001
1.456667 0.197561 0.000005 0.000000 0.899865 0.000005
1.583333 0.197561 0.000020 -0.000021 0.899074 0.000029
1.710000 0.197561 0.000012 -0.000054 0.897890 0.000055
1.836667 0.197561 0.000001 -0.000000 0.899975 0.000001
1.963333 0.197561 0.000001 -0.000000 0.899976 0.000001
2.090000 0.197561 0.000013 -0.000001 0.899627 0.000013
2.216667 0.197561 0.000024 -0.000003 0.899445 0.000025
2.343333 0.197561 0.000001 -0.000000 0.899981 0.000001
2.470000 0.197561 0.000022 -0.000000 0.899455 0.000022
2.596667 0.197561 0.000058 -0.000007 0.899210 0.000059
2.723333 0.197561 0.000048 -0.000002 0.899520 0.000048
2.850000 0.197561 0.000005 0.000000 0.899967 0.000005
2.976667 0.197561 0.000602 -0.000032 0.896219 0.000602
3.103333 0.197561 0.000137 0.000001 0.899040 0.000137
3.230000 0.197561 0.000612 -0.000024 0.894591 0.000612
3.356667 0.197561 0.000338 -0.000129 0.886839 0.000362
3.483333 0.197561 -0.000000 0.000000 0.900000 0.000000
3.610000 0.197561 0.000000 0.000001 0.899964 0.000001
3.736667 0.197561 0.000000 0.000000 0.000000 0.000000
0.063333 0.212195 0.000000 0.000000 0.000000 0.000000
0.190000 0.212195 -0.000009 0.000002 0.899627 0.000009
0.316667 0.212195 -0.000715 -0.000103 0.889779 0.000722
0.443333 0.212195 -0.000059 0.000003 0.899355 0.000059
0.570000 0.212195 -0.000000 0.000000 0.900000 0.000000
0.696667 0.212195 0.000000 0.000000 0.899999 0.000000
0.823333 0.212195 0.000002 -0.000000 0.899959 0.000002
0.950000 0.212195 -0.000248 -0.000246 0.890870 0.000350
1.076667 0.212195 -0.000115 -0.000071 0.895514 0.000135
1.203333 0.212195 0.000014 -0.000033 0.897930 0.000036
1.330000 0.212195 0.000005 -0.000015 0.898721 0.000016
1.456667 0.212195 0.000049 -0.000006 0.898505 0.000049
1.583333 0.212195 0.000122 -0.000176 0.891320 0.000215
1.710000 0.212195 0.000039 -0.000170 0.891453 0.000175
1.836667 0.212195 0.000016 -0.000000 0.899661 0.000016
1.963333 0.212195 0.000075 -0.000003 0.898420 0.000075
2.090000 0.212195 0.000320 -0.000015 0.892990 0.000320
2.216667 0.212195 0.000566 -0.000037 0.889211 0.000568
2.343333 0.212195 0.000068 -0.000002 0.898349 0.000068
2.470000 0.212195 0.000727 -0.000053 0.884341 0.000729
2.596667 0.212195 0.001195 -0.000100 0.885491 0.001199
2.723333 0.212195 0.001332 -0.000040 0.887753 0.001333
2.850000 0.212195 0.000569 0.000009 0.896030 0.000570
2.976667 0.212195 0.006644 -0.000196 0.855914 0.006647
3.103333 0.212195 0.007667 0.000064 0.841833 0.007668
3.230000 0.212195 0.008090 -0.000086 0.810213 0.008090
3.356667 0.212195 0.000751 0.000256 0.765677 0.000793
3.483333 0.212195 -0.001704 0.003009 0.782080 0.003458
3.610000 0.212195 0.000823 0.004420 0.756954 0.004496
3.736667 0.212195 0.000000 0.000000 0.000000 0.000000
0.063333 0.226829 0.000000 0.000000 0.000000 0.000000
0.190000 0.226829 -0.001074 0.000920 0.809818 0.001414
0.316667 0.226829 -0.003252 -0.000443 0.824877 0.003282
0.443333 0.226829 -0.001801 0.000065 0.875996 0.001802
0.570000 0.226829 -0.000013 0.000009 0.899799 0.000016
0.696667 0.226829 0.000004 0.000010 0.899808 0.000011
0.823333 0.226829 0.000064 0.000001 0.898184 0.000064
0.950000 0.226829 -0.001555 -0.001151 0.841370 0.001934
1.076667 0.226829 -0.000806 -0.000816 0.853351 0.001147
1.203333 0.226829 0.000099 -0.000339 0.874556 0.000353
1.330000 0.226829 -0.000094 -0.000165 0.882042 0.000190
1.456667 0.226829 0.000709 -0.000319 0.863937 0.000777
1.583333 0.226829 -0.000012 -0.001118 0.836161 0.001118
1.710000 0.226829 -0.000059 -0.000634 0.847112 0.000637
1.836667 0.226829 0.002169 0.000045 0.855220 0.002170
1.963333 0.226829 0.003615 -0.000112 0.820519 0.003617
2.090000 0.226829 0.005451 -0.000245 0.784033 0.005457
2.216667 0.226829 0.008719 -0.000451 0.751377 0.008731
2.343333 0.226829 0.008060 -0.000328 0.735262 0.008066
2.470000 0.226829 0.011400 -0.001188 0.692748 0.011462
2.596667 0.226829 0.023324 -0.001285 0.666937 0.023359
2.723333 0.226829 0.034862 -0.000804 0.638032 0.034871
2.850000 0.226829 0.045563 0.000564 0.612726 0.045567
2.976667 0.226829 0.048078 -0.000262 0.601619 0.048078
3.103333 0.226829 0.041058 0.000470 0.608919 0.041061
3.230000 0.226829 0.023666 0.001832 0.613031 0.023737
3.356667 0.226829 -0.001254 0.003128 0.609683 0.003370
3.483333 0.226829 -0.006895 0.004968 0.639627 0.008498
3.610000 0.226829 -0.001335 0.007644 0.636222 0.007760
3.736667 0.226829 0.000000 0.000000 0.000000 0.000000
0.063333 0.241463 0.000000 0.000000 0.000000 0.000000
0.190000 0.241463 -0.000097 0.002956 0.633215 0.002958
0.316667 0.241463 -0.004829 -0.000639 0.600338 0.004871
0.443333 0.241463 -0.010525 0.000416 0.604618 0.010533
0.570000 0.241463 -0.005258 0.005967 0.722034 0.007953
0.696667 0.241463 0.004978 0.006629 0.743079 0.008290
0.823333 0.241463 0.005261 0.002054 0.660579 0.005648
0.950000 0.241463 -0.008543 -0.004041 0.638200 0.009450
1.076667 0.241463 -0.003727 -0.004225 0.641352 0.005634
1.203333 0.241463 0.001031 -0.002724 0.643999 0.002912
1.330000 0.241463 -0.003562 -0.001372 0.636807 0.003816
1.456667 0.241463 0.001135 -0.004785 0.617310 0.004918
1.583333 0.241463 -0.001211 -0.004726 0.602321 0.004879
1.710000 0.241463 -0.000980 -0.002109 0.612983 0.002325
1.836667 0.241463 0.013459 0.000607 0.622292 0.013473
1.963333 0.241463 0.015367 -0.000430 0.604421 0.015373
2.090000 0.241463 0.016268 -0.000598 0.608047 0.016279
2.216667 0.241463 0.018859 -0.001048 0.610820 0.018889
2.343333 0.241463 0.015131 -0.000853 0.602605 0.015155
2.470000 0.241463 0.012708 -0.001851 0.600183 0.012842
2.596667 0.241463 0.024935 -0.001390 0.600881 0.024974
2.723333 0.241463 0.037080 -0.001199 0.600048 0.037100
2.850000 0.241463 0.043530 0.000951 0.600200 0.043540
2.976667 0.241463 0.045953 0.000303 0.600019 0.045954
3.103333 0.241463 0.040725 0.000871 0.600211 0.040735
3.230000 0.241463 0.022567 0.004735 0.601228 0.023059
3.356667 0.241463 -0.000690 0.005348 0.600862 0.005392
3.483333 0.241463 -0.007818 0.004000 0.603945 0.008782
3.610000 0.241463 -0.002427 0.007498 0.604602 0.007882
3.736667 0.241463 0.000000 0.000000 0.000000 0.000000
0.063333 0.256098 0.000000 0.000000 0.000000 0.000000
0.190000 0.256098 -0.001749 0.003412 0.602721 0.003834
0.316667 0.256098 -0.006902 0.000255 0.600006 0.006907
0.443333 0.256098 -0.005709 -0.000892 0.600042 0.005778
0.570000 0.256098 -0.001290 0.007232 0.623716 0.007346
0.696667 0.256098 0.007365 0.009947 0.636323 0.012377
0.823333 0.256098 0.000766 0.005786 0.607911 0.005836
0.950000 0.256098 -0.013132 -0.003914 0.600001 0.013703
1.076667 0.256098 -0.007012 -0.003879 0.600001 0.008014
1.203333 0.256098 0.000814 -0.002817 0.600037 0.002932
1.330000 0.256098 -0.005594 0.000131 0.601665 0.005596
1.456667 0.256098 -0.003503 -0.006974 0.600523 0.007804
1.583333 0.256098 -0.002928 -0.004864 0.600024 0.005678
1.710000 0.256098 -0.003995 -0.001026 0.600773 0.004125
1.836667 0.256098 0.008866 0.000652 0.601294 0.008890
1.963333 0.256098 0.009756 -0.000525 0.600170 0.009770
2.090000 0.256098 0.011989 -0.000679 0.600706 0.012008
2.216667 0.256098 0.015114 -0.001004 0.601726 0.015148
2.343333 0.256098 0.009201 -0.001162 0.600133 0.009274
2.470000 0.256098 0.006793 -0.001429 0.600009 0.006942
2.596667 0.256098 0.019924 -0.001327 0.600013 0.019968
2.723333 0.256098 0.035453 -0.001893 0.600000 0.035503
2.850000 0.256098 0.045221 0.001489 0.600003 0.045246
2.976667 0.256098 0.046856 0.000604 0.600000 0.046859
3.103333 0.256098 0.038643 0.001647 0.600007 0.038678
3.230000 0.256098 0.020458 0.007462 0.600118 0.021777
3.356667 0.256098 -0.000617 0.007360 0.600074 0.007386
3.483333 0.256098 -0.008029 0.002504 0.600196 0.008411
3.610000 0.256098 -0.002646 0.006402 0.600357 0.006928
3.736667 0.256098 0.000000 0.000000 0.000000 0.000000
0.063333 0.270732 0.000000 0.000000 0.000000 0.000000
0.190000 0.270732 -0.002293 0.003847 0.600158 0.004479
0.316667 0.270732 -0.008114 0.001020 0.600000 0.008178
0.443333 0.270732 -0.006250 -0.002968 0.600003 0.006919
0.570000 0.270732 -0.001289 0.006143 0.602560 0.006277
0.696667 0.270732 0.006951 0.010741 0.606047 0.012794