TITLE="(Vx,Vy)"
VARIABLES=X,Y,Vx,Vy,Vm,V
ZONE T="T-Dummy" I=30, J=41, F=POINT
0.063333 0.007317 0.000000 0.000000 0.000000 0.000000
0.190000 0.007317 0.000000 0.000000 0.000000 0.000000
0.316667 0.007317 0.000000 0.000000 0.000000 0.000000
0.443333 0.007317 0.000000 0.000000 0.000000 0.000000
0.570000 0.007317 0.000000 0.000000 0.000000 0.000000
0.696667 0.007317 0.000000 0.000000 0.000000 0.000000
0.823333 0.007317 0.000000 0.000000 0.000000 0.000000
0.950000 0.007317 0.000000 0.000000 0.000000 0.000000
1.076667 0.007317 0.000000 0.000000 0.000000 0.000000
1.203333 0.007317 0.000000 0.000000 0.000000 0.000000
1.330000 0.007317 0.000000 0.000000 0.000000 0.000000
1.456667 0.007317 0.000000 0.000000 0.000000 0.000000
1.583333 0.007317 0.000000 0.000000 0.000000 0.000000
1.710000 0.007317 0.000000 0.000000 0.000000 0.000000
1.836667 0.007317 0.000000 0.000000 0.000000 0.000000
1.963333 0.007317 0.000000 0.000000 0.000000 0.000000
2.090000 0.007317 0.000000 0.000000 0.000000 0.000000
2.216667 0.007317 0.000000 0.000000 0.000000 0.000000
2.343333 0.007317 0.000000 0.000000 0.000000 0.000000
2.470000 0.007317 0.000000 0.000000 0.000000 0.000000
2.596667 0.007317 0.000000 0.000000 0.000000 0.000000
2.723333 0.007317 0.000000 0.000000 0.000000 0.000000
2.850000 0.007317 0.000000 0.000000 0.000000 0.000000
2.976667 0.007317 0.000000 0.000000 0.000000 0.000000
3.103333 0.007317 0.000000 0.000000 0.000000 0.000000
3.230000 0.007317 0.000000 0.000000 0.000000 0.000000
3.356667 0.007317 0.000000 0.000000 0.000000 0.000000
3.483333 0.007317 0.000000 0.000000 0.000000 0.000000
3.610000 0.007317 0.000000 0.000000 0.000000 0.000000
3.736667 0.007317 0.000000 0.000000 0.000000 0.000000
0.063333 0.021951 0.000000 0.000000 0.000000 0.000000
0.190000 0.021951 0.000000 -0.000000 0.900000 0.000000
0.316667 0.021951 0.000000 -0.000000 0.900000 0.000000
0.443333 0.021951 0.000000 -0.000000 0.900000 0.000000
0.570000 0.021951 0.000000 -0.000000 0.900000 0.000000
0.696667 0.021951 0.000000 -0.000000 0.900000 0.000000
0.823333 0.021951 0.000000 0.000000 0.900000 0.000000
0.950000 0.021951 -0.000000 0.000000 0.900000 0.000000
1.076667 0.021951 -0.000000 -0.000000 0.900000 0.000000
1.203333 0.021951 0.000000 0.000000 0.900000 0.000000
1.330000 0.021951 -0.000000 0.000000 0.900000 0.000000
1.456667 0.021951 -0.000000 -0.000000 0.900000 0.000000
1.583333 0.021951 -0.000000 0.000000 0.900000 0.000000
1.710000 0.021951 -0.000000 -0.000000 0.900000 0.000000
1.836667 0.021951 -0.000000 -0.000000 0.900000 0.000000
1.963333 0.021951 -0.000000 -0.000000 0.900000 0.000000
2.090000 0.021951 -0.000000 -0.000000 0.900000 0.000000
2.216667 0.021951 -0.000000 -0.000000 0.900000 0.000000
2.343333 0.021951 -0.000000 0.000000 0.900000 0.000000
2.470000 0.021951 -0.000000 -0.000000 0.900000 0.000000
2.596667 0.021951 -0.000000 0.000000 0.900000 0.000000
2.723333 0.021951 -0.000000 -0.000000 0.900000 0.000000
2.850000 0.021951 -0.000000 -0.000000 0.900000 0.000000
2.976667 0.021951 -0.000000 0.000000 0.900000 0.000000
3.103333 0.021951 -0.000000 -0.000000 0.900000 0.000000
3.230000 0.021951 -0.000000 -0.000000 0.900000 0.000000
3.356667 0.021951 0.000000 -0.000000 0.900000 0.000000
3.483333 0.021951 0.000000 0.000000 0.900000 0.000000
3.610000 0.021951 -0.000000 0.000000 0.900000 0.000000
3.736667 0.021951 0.000000 0.000000 0.000000 0.000000
0.063333 0.036585 0.000000 0.000000 0.000000 0.000000
0.190000 0.036585 0.000000 -0.000000 0.900000 0.000000
0.316667 0.036585 0.000000 -0.000000 0.900000 0.000000
0.443333 0.036585 0.000000 -0.000000 0.900000 0.000000
0.570000 0.036585 0.000000 -0.000000 0.900000 0.000000
0.696667 0.036585 -0.000000 -0.000000 0.900000 0.000000
0.823333 0.036585 -0.000000 0.000000 0.900000 0.000000
0.950000 0.036585 -0.000000 0.000000 0.900000 0.000000
1.076667 0.036585 -0.000000 -0.000000 0.900000 0.000000
1.203333 0.036585 -0.000000 0.000000 0.900000 0.000000
1.330000 0.036585 -0.000000 -0.000000 0.900000 0.000000
1.456667 0.036585 -0.000000 -0.000000 0.900000 0.000000
1.583333 0.036585 0.000000 0.000000 0.900000 0.000000
1.710000 0.036585 0.000000 -0.000000 0.900000 0.000000
1.836667 0.036585 0.000000 -0.000000 0.900000 0.000000
1.963333 0.036585 0.000000 -0.000000 0.900000 0.000000
2.090000 0.036585 -0.000000 -0.000000 0.900000 0.000000
2.216667 0.036585 -0.000000 -0.000000 0.900000 0.000000
2.343333 0.036585 0.000000 0.000000 0.900000 0.000000
2.470000 0.036585 0.000000 -0.000000 0.900000 0.000000
2.596667 0.036585 -0.000000 0.000000 0.900000 0.000000
2.723333 0.036585 -0.000000 -0.000000 0.900000 0.000000
2.850000 0.036585 0.000000 -0.000000 0.900000 0.000000
2.976667 0.036585 0.000000 0.000000 0.900000 0.000000
3.103333 0.036585 0.000000 -0.000000 0.900000 0.000000
3.230000 0.036585 -0.000000 -0.000000 0.900000 0.000000
3.356667 0.036585 0.000000 -0.000000 0.900000 0.000000
3.483333 0.036585 0.000000 0.000000 0.900000 0.000000
3.610000 0.036585 -0.000000 0.000000 0.900000 0.000000
3.736667 0.036585 0.000000 0.000000 0.000000 0.000000
0.063333 0.051220 0.000000 0.000000 0.000000 0.000000
0.190000 0.051220 0.000000 -0.000000 0.900000 0.000000
0.316667 0.051220 0.000000 -0.000000 0.900000 0.000000
0.443333 0.051220 0.000000 -0.000000 0.900000 0.000000
0.570000 0.051220 0.000000 -0.000000 0.900000 0.000000
0.696667 0.051220 -0.000000 0.000000 0.900000 0.000000
0.823333 0.051220 -0.000000 -0.000000 0.900000 0.000000
0.950000 0.051220 -0.000000 -0.000000 0.900000 0.000000
1.076667 0.051220 -0.000000 -0.000000 0.900000 0.000000
1.203333 0.051220 -0.000000 0.000000 0.900000 0.000000
1.330000 0.051220 -0.000000 -0.000000 0.900000 0.000000
1.456667 0.051220 -0.000000 -0.000000 0.900000 0.000000
1.583333 0.051220 0.000000 0.000000 0.900000 0.000000
1.710000 0.051220 0.000000 -0.000000 0.900000 0.000000
1.836667 0.051220 0.000000 -0.000000 0.900000 0.000000
1.963333 0.051220 0.000000 -0.000000 0.900000 0.000000
2.090000 0.051220 0.000000 0.000000 0.900000 0.000000
2.216667 0.051220 -0.000000 -0.000000 0.900000 0.000000
2.343333 0.051220 0.000000 0.000000 0.900000 0.000000
2.470000 0.051220 0.000000 -0.000000 0.900000 0.000000
2.596667 0.051220 -0.000000 0.000000 0.900000 0.000000
2.723333 0.051220 -0.000000 -0.000000 0.900000 0.000000
2.850000 0.051220 0.000000 -0.000000 0.900000 0.000000
2.976667 0.051220 0.000000 0.000000 0.900000 0.000000
3.103333 0.051220 -0.000000 -0.000000 0.900000 0.000000
3.230000 0.051220 -0.000000 -0.000000 0.900000 0.000000
3.356667 0.051220 0.000000 -0.000000 0.900000 0.000000
3.483333 0.051220 0.000000 0.000000 0.900000 0.000000
3.610000 0.051220 -0.000000 0.000000 0.900000 0.000000
3.736667 0.051220 0.000000 0.000000 0.000000 0.000000
0.063333 0.065854 0.000000 0.000000 0.000000 0.000000
0.190000 0.065854 0.000000 -0.000000 0.900000 0.000000
0.316667 0.065854 0.000000 -0.000000 0.900000 0.000000
0.443333 0.065854 0.000000 -0.000000 0.900000 0.000000
0.570000 0.065854 0.000000 -0.000000 0.900000 0.000000
0.696667 0.065854 -0.000000 0.000000 0.900000 0.000000
0.823333 0.065854 -0.000000 -0.000000 0.900000 0.000000
0.950000 0.065854 -0.000000 -0.000000 0.900000 0.000000
1.076667 0.065854 -0.000000 -0.000000 0.900000 0.000000
1.203333 0.065854 0.000000 0.000000 0.900000 0.000000
1.330000 0.065854 -0.000000 -0.000000 0.900000 0.000000
1.456667 0.065854 -0.000000 -0.000000 0.900000 0.000000
1.583333 0.065854 -0.000000 0.000000 0.900000 0.000000
1.710000 0.065854 0.000000 -0.000000 0.900000 0.000000
1.836667 0.065854 0.000000 -0.000000 0.900000 0.000000
1.963333 0.065854 0.000000 -0.000000 0.900000 0.000000
2.090000 0.065854 0.000000 0.000000 0.900000 0.000000
2.216667 0.065854 -0.000000 -0.000000 0.900000 0.000000
2.343333 0.065854 0.000000 0.000000 0.900000 0.000000
2.470000 0.065854 0.000000 -0.000000 0.900000 0.000000
2.596667 0.065854 -0.000000 0.000000 0.900000 0.000000
2.723333 0.065854 -0.000000 -0.000000 0.900000 0.000000
2.850000 0.065854 0.000000 -0.000000 0.900000 0.000000
2.976667 0.065854 0.000000 0.000000 0.900000 0.000000
3.103333 0.065854 -0.000000 -0.000000 0.900000 0.000000
3.230000 0.065854 -0.000000 -0.000000 0.900000 0.000000
3.356667 0.065854 0.000000 -0.000000 0.900000 0.000000
3.483333 0.065854 0.000000 0.000000 0.900000 0.000000
3.610000 0.065854 -0.000000 0.000000 0.900000 0.000000
3.736667 0.065854 0.000000 0.000000 0.000000 0.000000
0.063333 0.080488 0.000000 0.000000 0.000000 0.000000
0.190000 0.080488 0.000000 -0.000000 0.900000 0.000000
0.316667 0.080488 0.000000 -0.000000 0.900000 0.000000
0.443333 0.080488 0.000000 -0.000000 0.900000 0.000000
0.570000 0.080488 0.000000 -0.000000 0.900000 0.000000
0.696667 0.080488 -0.000000 0.000000 0.900000 0.000000
0.823333 0.080488 -0.000000 -0.000000 0.900000 0.000000
0.950000 0.080488 -0.000000 -0.000000 0.900000 0.000000
1.076667 0.080488 -0.000000 -0.000000 0.900000 0.000000
1.203333 0.080488 0.000000 -0.000000 0.900000 0.000000
1.330000 0.080488 -0.000000 -0.000000 0.900000 0.000000
1.456667 0.080488 -0.000000 -0.000000 0.900000 0.000000
1.583333 0.080488 -0.000000 -0.000000 0.900000 0.000000
1.710000 0.080488 0.000000 -0.000000 0.900000 0.000000
1.836667 0.080488 0.000000 -0.000000 0.900000 0.000000
1.963333 0.080488 0.000000 -0.000000 0.900000 0.000000
2.090000 0.080488 -0.000000 0.000000 0.900000 0.000000
2.216667 0.080488 -0.000000 -0.000000 0.900000 0.000000
2.343333 0.080488 0.000000 0.000000 0.900000 0.000000
2.470000 0.080488 0.000000 -0.000000 0.900000 0.000000
2.596667 0.080488 -0.000000 0.000000 0.900000 0.000000
2.723333 0.080488 -0.000000 -0.000000 0.900000 0.000000
2.850000 0.080488 0.000000 -0.000000 0.900000 0.000000
2.976667 0.080488 0.000000 -0.000000 0.900000 0.000000
3.103333 0.080488 -0.000000 -0.000000 0.900000 0.000000
3.230000 0.080488 -0.000000 -0.000000 0.900000 0.000000
3.356667 0.080488 -0.000000 -0.000000 0.900000 0.000000
3.483333 0.080488 0.000000 0.000000 0.900000 0.000000
3.610000 0.080488 -0.000000 0.000000 0.900000 0.000000
3.736667 0.080488 0.000000 0.000000 0.000000 0.000000
0.063333 0.095122 0.000000 0.000000 0.000000 0.000000
0.190000 0.095122 0.000000 -0.000000 0.900000 0.000000
0.316667 0.095122 0.000000 -0.000000 0.900000 0.000000
0.443333 0.095122 0.000000 -0.000000 0.900000 0.000000
0.570000 0.095122 0.000000 -0.000000 0.900000 0.000000
0.696667 0.095122 -0.000000 0.000000 0.900000 0.000000
0.823333 0.095122 -0.000000 -0.000000 0.900000 0.000000
0.950000 0.095122 -0.000000 -0.000000 0.900000 0.000000
1.076667 0.095122 -0.000000 -0.000000 0.900000 0.000000
1.203333 0.095122 0.000000 -0.000000 0.900000 0.000000
1.330000 0.095122 -0.000000 -0.000000 0.900000 0.000000
1.456667 0.095122 -0.000000 -0.000000 0.900000 0.000000
1.583333 0.095122 -0.000000 -0.000000 0.900000 0.000000
1.710000 0.095122 0.000000 -0.000000 0.900000 0.000000
1.836667 0.095122 0.000000 -0.000000 0.900000 0.000000
1.963333 0.095122 -0.000000 -0.000000 0.900000 0.000000
2.090000 0.095122 -0.000000 0.000000 0.900000 0.000000
2.216667 0.095122 -0.000000 -0.000000 0.900000 0.000000
2.343333 0.095122 0.000000 0.000000 0.900000 0.000000
2.470000 0.095122 -0.000000 -0.000000 0.900000 0.000000
2.596667 0.095122 -0.000000 0.000000 0.900000 0.000000
2.723333 0.095122 -0.000000 -0.000000 0.900000 0.000000
2.850000 0.095122 0.000000 -0.000000 0.900000 0.000000
2.976667 0.095122 0.000000 -0.000000 0.900000 0.000000
3.103333 0.095122 -0.000000 -0.000000 0.900000 0.000000
3.230000 0.095122 -0.000000 -0.000000 0.900000 0.000000
3.356667 0.095122 -0.000000 -0.000000 0.900000 0.000000
3.483333 0.095122 -0.000000 0.000000 0.900000 0.000000
3.610000 0.095122 -0.000000 0.000000 0.900000 0.000000
3.736667 0.095122 0.000000 0.000000 0.000000 0.000000
0.063333 0.109756 0.000000 0.000000 0.000000 0.000000
0.190000 0.109756 -0.000000 -0.000000 0.900000 0.000000
0.316667 0.109756 0.000000 -0.000000 0.900000 0.000000
0.443333 0.109756 0.000000 -0.000000 0.900000 0.000000
0.570000 0.109756 -0.000000 -0.000000 0.900000 0.000000
0.696667 0.109756 -0.000000 0.000000 0.900000 0.000000
0.823333 0.109756 -0.000000 -0.000000 0.900000 0.000000
0.950000 0.109756 -0.000000 -0.000000 0.900000 0.000000
1.076667 0.109756 -0.000000 -0.000000 0.900000 0.000000
1.203333 0.109756 0.000000 -0.000000 0.900000 0.000000
1.330000 0.109756 -0.000000 -0.000000 0.900000 0.000000
1.456667 0.109756 -0.000000 -0.000000 0.900000 0.000000
1.583333 0.109756 -0.000000 -0.000000 0.900000 0.000000
1.710000 0.109756 0.000000 -0.000000 0.900000 0.000000
1.836667 0.109756 0.000000 -0.000000 0.900000 0.000000
1.963333 0.109756 -0.000000 -0.000000 0.900000 0.000000
2.090000 0.109756 -0.000000 0.000000 0.900000 0.000000
2.216667 0.109756 -0.000000 -0.000000 0.900000 0.000000
2.343333 0.109756 0.000000 0.000000 0.900000 0.000000
2.470000 0.109756 -0.000000 -0.000000 0.900000 0.000000
2.596667 0.109756 -0.000000 -0.000000 0.900000 0.000000
2.723333 0.109756 -0.000000 -0.000000 0.900000 0.000000
2.850000 0.109756 0.000000 -0.000000 0.900000 0.000000
2.976667 0.109756 0.000000 -0.000000 0.900000 0.000000
3.103333 0.109756 -0.000000 -0.000000 0.900000 0.000000
3.230000 0.109756 -0.000000 -0.000000 0.900000 0.000000
3.356667 0.109756 -0.000000 -0.000000 0.900000 0.000000
3.483333 0.109756 -0.000000 0.000000 0.900000 0.000000
3.610000 0.109756 -0.000000 0.000000 0.900000 0.000000
3.736667 0.109756 0.000000 0.000000 0.000000 0.000000
0.063333 0.124390 0.000000 0.000000 0.000000 0.000000
0.190000 0.124390 -0.000000 -0.000000 0.900000 0.000000
0.316667 0.124390 -0.000000 -0.000000 0.900000 0.000000
0.443333 0.124390 0.000000 -0.000000 0.900000 0.000000
0.570000 0.124390 -0.000000 -0.000000 0.900000 0.000000
0.696667 0.124390 -0.000000 0.000000 0.900000 0.000000
0.823333 0.124390 -0.000000 -0.000000 0.900000 0.000000
0.950000 0.124390 -0.000000 -0.000000 0.900000 0.000000
1.076667 0.124390 -0.000000 -0.000000 0.900000 0.000000
1.203333 0.124390 0.000000 -0.000000 0.900000 0.000000
1.330000 0.124390 -0.000000 -0.000000 0.900000 0.000000
1.456667 0.124390 -0.000000 -0.000000 0.900000 0.000000
1.583333 0.124390 -0.000000 -0.000000 0.900000 0.000000
1.710000 0.124390 0.000000 -0.000000 0.900000 0.000000
1.836667 0.124390 0.000000 -0.000000 0.900000 0.000000
1.963333 0.124390 0.000000 -0.000000 0.900000 0.000000
2.090000 0.124390 -0.000000 -0.000000 0.900000 0.000000
2.216667 0.124390 -0.000000 -0.000000 0.900000 0.000000
2.343333 0.124390 0.000000 0.000000 0.900000 0.000000
2.470000 0.124390 0.000000 -0.000000 0.900000 0.000000
2.596667 0.124390 -0.000000 -0.000000 0.900000 0.000000
2.723333 0.124390 -0.000000 -0.000000 0.900000 0.000000
2.850000 0.124390 0.000000 -0.000000 0.900000 0.000000
2.976667 0.124390 0.000000 -0.000000 0.900000 0.000000
3.103333 0.124390 -0.000000 -0.000000 0.900000 0.000000
3.230000 0.124390 -0.000000 -0.000000 0.900000 0.000000
3.356667 0.124390 -0.000000 -0.000000 0.900000 0.000000
3.483333 0.124390 -0.000000 0.000000 0.900000 0.000000
3.610000 0.124390 -0.000000 0.000000 0.900000 0.000000
3.736667 0.124390 0.000000 0.000000 0.000000 0.000000
0.063333 0.139024 0.000000 0.000000 0.000000 0.000000
0.190000 0.139024 -0.000000 -0.000000 0.900000 0.000000
0.316667 0.139024 -0.000000 -0.000000 0.900000 0.000000
0.443333 0.139024 0.000000 -0.000000 0.900000 0.000000
0.570000 0.139024 -0.000000 -0.000000 0.900000 0.000000
0.696667 0.139024 -0.000000 0.000000 0.900000 0.000000
0.823333 0.139024 -0.000000 -0.000000 0.899999 0.000000
0.950000 0.139024 0.000000 -0.000000 0.899999 0.000000
1.076667 0.139024 -0.000000 -0.000000 0.900000 0.000000
1.203333 0.139024 0.000000 -0.000000 0.899999 0.000000
1.330000 0.139024 -0.000000 -0.000000 0.899996 0.000000
1.456667 0.139024 -0.000000 -0.000000 0.900000 0.000000
1.583333 0.139024 -0.000000 -0.000000 0.900000 0.000000
1.710000 0.139024 0.000000 -0.000000 0.900000 0.000000
1.836667 0.139024 0.000000 -0.000000 0.900000 0.000000
1.963333 0.139024 0.000000 -0.000000 0.900000 0.000000
2.090000 0.139024 0.000000 -0.000000 0.900000 0.000000
2.216667 0.139024 0.000000 -0.000000 0.900000 0.000000
2.343333 0.139024 0.000000 -0.000000 0.900000 0.000000
2.470000 0.139024 0.000000 -0.000000 0.900000 0.000000
2.596667 0.139024 -0.000000 -0.000000 0.900000 0.000000
2.723333 0.139024 -0.000000 -0.000000 0.900000 0.000000
2.850000 0.139024 0.000000 -0.000000 0.900000 0.000000
2.976667 0.139024 0.000000 -0.000000 0.899994 0.000000
3.103333 0.139024 -0.000000 -0.000000 0.900000 0.000000
3.230000 0.139024 -0.000000 -0.000000 0.900000 0.000000
3.356667 0.139024 -0.000000 -0.000000 0.899998 0.000000
3.483333 0.139024 -0.000000 0.000000 0.900000 0.000000
3.610000 0.139024 -0.000000 0.000000 0.900000 0.000000
3.736667 0.139024 0.000000 0.000000 0.000000 0.000000
0.063333 0.153659 0.000000 0.000000 0.000000 0.000000
0.190000 0.153659 -0.000000 -0.000000 0.900000 0.000000
0.316667 0.153659 0.000000 -0.000000 0.900000 0.000000
0.443333 0.153659 0.000000 -0.000000 0.899999 0.000000
0.570000 0.153659 -0.000000 -0.000000 0.899999 0.000000
0.696667 0.153659 -0.000000 0.000000 0.900000 0.000000
0.823333 0.153659 -0.000000 -0.000000 0.899978 0.000000
0.950000 0.153659 0.000000 -0.000000 0.899983 0.000000
1.076667 0.153659 -0.000000 -0.000000 0.899993 0.000000
1.203333 0.153659 0.000000 -0.000000 0.899977 0.000000
1.330000 0.153659 -0.000001 -0.000001 0.899958 0.000001
1.456667 0.153659 -0.000000 -0.000000 0.900000 0.000000
1.583333 0.153659 0.000000 -0.000000 0.900000 0.000000
1.710000 0.153659 0.000000 -0.000000 0.900000 0.000000
1.836667 0.153659 0.000000 -0.000000 0.900000 0.000000
1.963333 0.153659 0.000000 -0.000000 0.900000 0.000000
2.090000 0.153659 0.000000 -0.000000 0.900000 0.000000
2.216667 0.153659 0.000000 -0.000000 0.900000 0.000000
2.343333 0.153659 0.000000 -0.000000 0.900000 0.000000
2.470000 0.153659 0.000000 -0.000000 0.900000 0.000000
2.596667 0.153659 -0.000000 -0.000000 0.900000 0.000000
2.723333 0.153659 -0.000000 -0.000000 0.900000 0.000000
2.850000 0.153659 0.000000 -0.000000 0.900000 0.000000
2.976667 0.153659 0.000001 -0.000001 0.899933 0.000001
3.103333 0.153659 -0.000000 -0.000000 0.900000 0.000000
3.230000 0.153659 -0.000000 -0.000000 0.899999 0.000000
3.356667 0.153659 -0.000001 -0.000001 0.899972 0.000002
3.483333 0.153659 -0.000000 0.000000 0.900000 0.000000
3.610000 0.153659 -0.000000 0.000000 0.900000 0.000000
3.736667 0.153659 0.000000 0.000000 0.000000 0.000000
0.063333 0.168293 0.000000 0.000000 0.000000 0.000000
0.190000 0.168293 -0.000000 -0.000000 0.900000 0.000000
0.316667 0.168293 -0.000000 -0.000000 0.899998 0.000000
0.443333 0.168293 0.000000 -0.000000 0.899968 0.000000
0.570000 0.168293 -0.000000 -0.000000 0.899978 0.000000
0.696667 0.168293 -0.000000 0.000000 0.899994 0.000000
0.823333 0.168293 0.000000 -0.000006 0.899692 0.000006
0.950000 0.168293 0.000003 -0.000004 0.899758 0.000005
1.076667 0.168293 -0.000001 -0.000003 0.899847 0.000003
1.203333 0.168293 0.000001 -0.000007 0.899616 0.000007
1.330000 0.168293 -0.000009 -0.000005 0.899667 0.000010
1.456667 0.168293 -0.000000 0.000000 0.900000 0.000000
1.583333 0.168293 0.000000 -0.000000 0.899992 0.000000
1.710000 0.168293 0.000000 -0.000000 0.899996 0.000000
1.836667 0.168293 0.000000 -0.000000 0.899995 0.000000
1.963333 0.168293 0.000000 -0.000000 0.900000 0.000000
2.090000 0.168293 -0.000000 -0.000000 0.899995 0.000000
2.216667 0.168293 -0.000000 -0.000000 0.899999 0.000000
2.343333 0.168293 0.000000 -0.000000 0.899998 0.000000
2.470000 0.168293 -0.000000 -0.000000 0.899997 0.000000
2.596667 0.168293 -0.000000 -0.000000 0.899982 0.000000
2.723333 0.168293 -0.000000 -0.000000 0.899996 0.000000
2.850000 0.168293 0.000000 -0.000000 0.899996 0.000000
2.976667 0.168293 0.000004 -0.000011 0.899480 0.000012
3.103333 0.168293 -0.000000 -0.000000 0.899997 0.000000
3.230000 0.168293 -0.000001 -0.000000 0.899983 0.000001
3.356667 0.168293 -0.000017 -0.000008 0.899722 0.000018
3.483333 0.168293 -0.000000 0.000000 0.900000 0.000000
3.610000 0.168293 -0.000000 0.000000 0.900000 0.000000
3.736667 0.168293 0.000000 0.000000 0.000000 0.000000
0.063333 0.182927 0.000000 0.000000 0.000000 0.000000
0.190000 0.182927 -0.000000 0.000000 0.899999 0.000000
0.316667 0.182927 -0.000001 -0.000000 0.899886 0.000001
0.443333 0.182927 0.000004 -0.000005 0.899305 0.000006
0.570000 0.182927 -0.000004 -0.000001 0.899657 0.000004
0.696667 0.182927 -0.000003 0.000002 0.899923 0.000003
0.823333 0.182927 0.000025 -0.000055 0.896599 0.000061
0.950000 0.182927 0.000034 -0.000050 0.897042 0.000060
1.076667 0.182927 -0.000015 -0.000041 0.897625 0.000044
1.203333 0.182927 0.000007 -0.000092 0.895613 0.000093
1.330000 0.182927 -0.000066 -0.000029 0.897782 0.000072
1.456667 0.182927 -0.000000 0.000000 0.899994 0.000000
1.583333 0.182927 0.000003 -0.000003 0.899769 0.000004
1.710000 0.182927 0.000003 -0.000001 0.899830 0.000003
1.836667 0.182927 0.000000 -0.000001 0.899852 0.000001
1.963333 0.182927 -0.000000 -0.000000 0.899984 0.000000
2.090000 0.182927 -0.000002 -0.000001 0.899864 0.000002
2.216667 0.182927 -0.000001 -0.000000 0.899939 0.000001
2.343333 0.182927 -0.000000 -0.000000 0.899906 0.000001
2.470000 0.182927 -0.000002 -0.000001 0.899836 0.000002
2.596667 0.182927 -0.000016 -0.000004 0.899356 0.000017
2.723333 0.182927 -0.000004 -0.000001 0.899868 0.000004
2.850000 0.182927 0.000000 -0.000001 0.899849 0.000001
2.976667 0.182927 -0.000008 -0.000053 0.897301 0.000053
3.103333 0.182927 -0.000001 -0.000000 0.899958 0.000001
3.230000 0.182927 -0.000009 -0.000003 0.899712 0.000010
3.356667 0.182927 -0.000148 -0.000054 0.897718 0.000157
3.483333 0.182927 -0.000000 0.000000 0.900000 0.000000
3.610000 0.182927 -0.000000 0.000000 0.899999 0.000000
3.736667 0.182927 0.000000 0.000000 0.000000 0.000000
0.063333 0.197561 0.000000 0.000000 0.000000 0.000000
0.190000 0.197561 -0.000001 0.000000 0.899938 0.000001
0.316667 0.197561 -0.000059 -0.000013 0.894527 0.000060
0.443333 0.197561 0.000043 -0.000069 0.886882 0.000082
0.570000 0.197561 -0.000074 -0.000000 0.894777 0.000074
0.696667 0.197561 -0.000058 0.000046 0.897799 0.000074
0.823333 0.197561 0.000554 -0.000345 0.871604 0.000653
0.950000 0.197561 0.000416 -0.000429 0.872447 0.000598
1.076667 0.197561 -0.000050 -0.000447 0.874629 0.000450
1.203333 0.197561 0.000273 -0.000681 0.868284 0.000734
1.330000 0.197561 -0.000430 -0.000224 0.881943 0.000485
1.456667 0.197561 -0.000015 -0.000001 0.899132 0.000015
1.583333 0.197561 0.000105 -0.000052 0.893956 0.000117
1.710000 0.197561 0.000091 -0.000032 0.894538 0.000097
1.836667 0.197561 0.000015 -0.000023 0.895985 0.000027
1.963333 0.197561 -0.000005 -0.000006 0.898337 0.000008
2.090000 0.197561 -0.000047 -0.000024 0.894794 0.000053
2.216667 0.197561 -0.000042 -0.000016 0.896485 0.000045
2.343333 0.197561 -0.000020 -0.000014 0.895897 0.000024
2.470000 0.197561 -0.000047 -0.000029 0.894556 0.000055
2.596667 0.197561 -0.000356 -0.000082 0.888746 0.000365
2.723333 0.197561 -0.000142 -0.000016 0.896118 0.000143
2.850000 0.197561 -0.000052 -0.000024 0.895820 0.000057
2.976667 0.197561 -0.000169 -0.000165 0.887347 0.000236
3.103333 0.197561 -0.000027 -0.000001 0.899138 0.000027
3.230000 0.197561 -0.000160 -0.000040 0.895124 0.000165
3.356667 0.197561 -0.001189 -0.000300 0.882622 0.001227
3.483333 0.197561 -0.000002 0.000000 0.899961 0.000002
3.610000 0.197561 -0.000002 0.000001 0.899660 0.000003
3.736667 0.197561 0.000000 0.000000 0.000000 0.000000
0.063333 0.212195 0.000000 0.000000 0.000000 0.000000
0.190000 0.212195 -0.000744 0.000652 0.712173 0.000989
0.316667 0.212195 -0.000375 -0.000338 0.719079 0.000505
0.443333 0.212195 0.002542 -0.000636 0.731678 0.002620
0.570000 0.212195 -0.000448 0.000518 0.752024 0.000685
0.696667 0.212195 -0.001850 0.001881 0.785734 0.002638
0.823333 0.212195 0.005289 -0.001188 0.740065 0.005421
0.950000 0.212195 0.005301 -0.002292 0.740376 0.005776
1.076667 0.212195 0.001996 -0.002568 0.750657 0.003252
1.203333 0.212195 0.003046 -0.002676 0.751255 0.004054
1.330000 0.212195 -0.001351 -0.001630 0.761722 0.002117
1.456667 0.212195 -0.000325 -0.000131 0.788712 0.000351
1.583333 0.212195 0.003638 -0.000605 0.782921 0.003688
1.710000 0.212195 0.003148 -0.000686 0.786520 0.003222
1.836667 0.212195 0.001532 -0.000524 0.797191 0.001619
1.963333 0.212195 0.000705 -0.000360 0.801375 0.000792
2.090000 0.212195 0.000280 -0.000615 0.790593 0.000675
2.216667 0.212195 0.000034 -0.000509 0.798052 0.000510
2.343333 0.212195 0.000836 -0.000558 0.795959 0.001005
2.470000 0.212195 0.000280 -0.000589 0.802083 0.000652
2.596667 0.212195 -0.003023 -0.000894 0.792945 0.003153
2.723333 0.212195 -0.003251 -0.000436 0.811483 0.003280
2.850000 0.212195 -0.001170 -0.000318 0.819112 0.001212
2.976667 0.212195 -0.001097 -0.000689 0.803494 0.001296
3.103333 0.212195 -0.001478 -0.000062 0.837125 0.001479
3.230000 0.212195 -0.002619 -0.000296 0.835348 0.002635
3.356667 0.212195 -0.007299 -0.001462 0.798097 0.007444
3.483333 0.212195 -0.002029 0.000170 0.860946 0.002036
3.610000 0.212195 -0.000345 0.000164 0.851007 0.000382
3.736667 0.212195 0.000000 0.000000 0.000000 0.000000
0.063333 0.226829 0.000000 0.000000 0.000000 0.000000
0.190000 0.226829 0.000726 0.001153 0.609070 0.001362
0.316667 0.226829 0.003622 -0.000402 0.600191 0.003644
0.443333 0.226829 0.010020 -0.000777 0.600042 0.010050
0.570000 0.226829 0.006488 0.001975 0.606041 0.006782
0.696667 0.226829 -0.000685 0.003574 0.636946 0.003639
0.823333 0.226829 0.012674 -0.001507 0.600218 0.012763
0.950000 0.226829 0.015670 -0.004320 0.600010 0.016255
1.076667 0.226829 0.006987 -0.004656 0.600047 0.008396
1.203333 0.226829 0.009305 -0.004531 0.600396 0.010350
1.330000 0.226829 0.002216 -0.003657 0.601015 0.004276
1.456667 0.226829 0.002308 -0.000118 0.613259 0.002311
1.583333 0.226829 0.012424 -0.000900 0.602838 0.012457
1.710000 0.226829 0.012979 -0.001847 0.601370 0.013110
1.836667 0.226829 0.009987 -0.001323 0.601466 0.010074
1.963333 0.226829 0.007604 -0.000971 0.602042 0.007666
2.090000 0.226829 0.006357 -0.002268 0.600446 0.006749
2.216667 0.226829 0.006410 -0.001678 0.600702 0.006626
2.343333 0.226829 0.009514 -0.002487 0.600751 0.009834
2.470000 0.226829 0.007457 -0.002043 0.600139 0.007732
2.596667 0.226829 -0.002826 -0.002977 0.600006 0.004105
2.723333 0.226829 -0.007413 -0.001543 0.600029 0.007571
2.850000 0.226829 -0.002440 -0.000664 0.600048 0.002528
2.976667 0.226829 -0.000945 -0.001382 0.600220 0.001675
3.103333 0.226829 -0.005448 -0.000190 0.603110 0.005452
3.230000 0.226829 -0.013889 0.000212 0.600203 0.013891
3.356667 0.226829 -0.021965 -0.004069 0.600962 0.022339
3.483333 0.226829 -0.014366 0.000037 0.616585 0.014366
3.610000 0.226829 -0.003240 0.000866 0.606135 0.003354
3.736667 0.226829 0.000000 0.000000 0.000000 0.000000
0.063333 0.241463 0.000000 0.000000 0.000000 0.000000
0.190000 0.241463 0.001025 0.001135 0.600388 0.001529
0.316667 0.241463 0.004425 -0.000296 0.600002 0.004435
0.443333 0.241463 0.011601 -0.000578 0.600000 0.011616
0.570000 0.241463 0.010385 0.002388 0.600190 0.010656
0.696667 0.241463 0.001230 0.003655 0.607240 0.003856
0.823333 0.241463 0.012933 -0.001809 0.600012 0.013059
0.950000 0.241463 0.015829 -0.004453 0.600000 0.016444
1.076667 0.241463 0.005450 -0.004048 0.600000 0.006789
1.203333 0.241463 0.009482 -0.004700 0.600005 0.010583
1.330000 0.241463 0.003509 -0.004059 0.600027 0.005366
1.456667 0.241463 0.001968 0.000482 0.600772 0.002026
1.583333 0.241463 0.011586 -0.001334 0.600148 0.011663
1.710000 0.241463 0.012880 -0.001944 0.600010 0.013026
1.836667 0.241463 0.010856 -0.001241 0.600006 0.010927
1.963333 0.241463 0.008703 -0.000690 0.600012 0.008730
2.090000 0.241463 0.006915 -0.003034 0.600001 0.007551
2.216667 0.241463 0.007422 -0.001986 0.600001 0.007683
2.343333 0.241463 0.010836 -0.003575 0.600010 0.011410
2.470000 0.241463 0.008215 -0.002313 0.600002 0.008534
2.596667 0.241463 -0.004156 -0.003346 0.600000 0.005336
2.723333 0.241463 -0.009366 -0.001454 0.600000 0.009478
2.850000 0.241463 -0.001656 -0.000402 0.600000 0.001704
2.976667 0.241463 0.000819 -0.000845 0.600000 0.001176
3.103333 0.241463 -0.005124 0.000189 0.600024 0.005127
3.230000 0.241463 -0.014263 0.001793 0.600007 0.014375
3.356667 0.241463 -0.021851 -0.003151 0.600011 0.022077
3.483333 0.241463 -0.015395 -0.000698 0.600194 0.015411
3.610000 0.241463 -0.003941 0.000625 0.600069 0.003990
3.736667 0.241463 0.000000 0.000000 0.000000 0.000000
0.063333 0.256098 0.000000 0.000000 0.000000 0.000000
0.190000 0.256098 0.000708 0.001104 0.600010 0.001311
0.316667 0.256098 0.003840 -0.000231 0.600000 0.003847
0.443333 0.256098 0.011102 -0.000446 0.600000 0.011111
0.570000 0.256098 0.010190 0.002457 0.600005 0.010482
0.696667 0.256098 0.000652 0.003696 0.600767 0.003753
0.823333 0.256098 0.011620 -0.002452 0.600000 0.011876
0.950000 0.256098 0.014308 -0.004439 0.600000 0.014981
1.076667 0.256098 0.003954 -0.003466 0.600000 0.005258
1.203333 0.256098 0.008157 -0.005203 0.600000 0.009675
1.330000 0.256098 0.001640 -0.004395 0.600001 0.004691
1.456667 0.256098 0.000301 0.001103 0.600049 0.001144
1.583333 0.256098 0.010970 -0.002237 0.600006 0.011196
1.710000 0.256098 0.012698 -0.002046 0.600000 0.012861
1.836667 0.256098 0.009750 -0.001117 0.600000 0.009814
1.963333 0.256098 0.007833 -0.000464 0.600000 0.007847
2.090000 0.256098 0.005827 -0.003663 0.600000 0.006883
2.216667 0.256098 0.004788 -0.002371 0.600000 0.005342
2.343333 0.256098 0.007052 -0.004614 0.600000 0.008427
2.470000 0.256098 0.004200 -0.002681 0.600000 0.004983
2.596667 0.256098 -0.007045 -0.003572 0.600000 0.007899
2.723333 0.256098 -0.010412 -0.001674 0.600000 0.010546
2.850000 0.256098 -0.000610 -0.000421 0.600000 0.000741
2.976667 0.256098 0.002656 -0.000297 0.600000 0.002673
3.103333 0.256098 -0.004117 0.000893 0.600000 0.004213
3.230000 0.256098 -0.014642 0.003243 0.600000 0.014997
3.356667 0.256098 -0.022191 -0.001724 0.600000 0.022258
3.483333 0.256098 -0.015611 -0.001326 0.600000 0.015667
3.610000 0.256098 -0.004141 0.000277 0.600000 0.004150
3.736667 0.256098 0.000000 0.000000 0.000000 0.000000
0.063333 0.270732 0.000000 0.000000 0.000000 0.000000
0.190000 0.270732 0.000291 0.001160 0.600000 0.001196