TITLE="(Vx,Vy)"
VARIABLES=X,Y,Vx,Vy,Vm,V
ZONE T="T-Dummy" I=30, J=41, F=POINT
0.063333 0.007317 0.000000 0.000000 0.000000 0.000000
0.190000 0.007317 0.000000 0.000000 0.000000 0.000000
0.316667 0.007317 0.000000 0.000000 0.000000 0.000000
0.443333 0.007317 0.000000 0.000000 0.000000 0.000000
0.570000 0.007317 0.000000 0.000000 0.000000 0.000000
0.696667 0.007317 0.000000 0.000000 0.000000 0.000000
0.823333 0.007317 0.000000 0.000000 0.000000 0.000000
0.950000 0.007317 0.000000 0.000000 0.000000 0.000000
1.076667 0.007317 0.000000 0.000000 0.000000 0.000000
1.203333 0.007317 0.000000 0.000000 0.000000 0.000000
1.330000 0.007317 0.000000 0.000000 0.000000 0.000000
1.456667 0.007317 0.000000 0.000000 0.000000 0.000000
1.583333 0.007317 0.000000 0.000000 0.000000 0.000000
1.710000 0.007317 0.000000 0.000000 0.000000 0.000000
1.836667 0.007317 0.000000 0.000000 0.000000 0.000000
1.963333 0.007317 0.000000 0.000000 0.000000 0.000000
2.090000 0.007317 0.000000 0.000000 0.000000 0.000000
2.216667 0.007317 0.000000 0.000000 0.000000 0.000000
2.343333 0.007317 0.000000 0.000000 0.000000 0.000000
2.470000 0.007317 0.000000 0.000000 0.000000 0.000000
2.596667 0.007317 0.000000 0.000000 0.000000 0.000000
2.723333 0.007317 0.000000 0.000000 0.000000 0.000000
2.850000 0.007317 0.000000 0.000000 0.000000 0.000000
2.976667 0.007317 0.000000 0.000000 0.000000 0.000000
3.103333 0.007317 0.000000 0.000000 0.000000 0.000000
3.230000 0.007317 0.000000 0.000000 0.000000 0.000000
3.356667 0.007317 0.000000 0.000000 0.000000 0.000000
3.483333 0.007317 0.000000 0.000000 0.000000 0.000000
3.610000 0.007317 0.000000 0.000000 0.000000 0.000000
3.736667 0.007317 0.000000 0.000000 0.000000 0.000000
0.063333 0.021951 0.000000 0.000000 0.000000 0.000000
0.190000 0.021951 0.000000 -0.000000 0.900000 0.000000
0.316667 0.021951 -0.000000 0.000000 0.900000 0.000000
0.443333 0.021951 -0.000000 -0.000000 0.900000 0.000000
0.570000 0.021951 -0.000000 -0.000000 0.900000 0.000000
0.696667 0.021951 -0.000000 0.000000 0.900000 0.000000
0.823333 0.021951 -0.000000 0.000000 0.900000 0.000000
0.950000 0.021951 -0.000000 -0.000000 0.900000 0.000000
1.076667 0.021951 -0.000000 -0.000000 0.900000 0.000000
1.203333 0.021951 0.000000 -0.000000 0.900000 0.000000
1.330000 0.021951 0.000000 0.000000 0.900000 0.000000
1.456667 0.021951 0.000000 -0.000000 0.900000 0.000000
1.583333 0.021951 -0.000000 0.000000 0.900000 0.000000
1.710000 0.021951 -0.000000 -0.000000 0.900000 0.000000
1.836667 0.021951 -0.000000 -0.000000 0.900000 0.000000
1.963333 0.021951 -0.000000 -0.000000 0.900000 0.000000
2.090000 0.021951 -0.000000 -0.000000 0.900000 0.000000
2.216667 0.021951 -0.000000 0.000000 0.900000 0.000000
2.343333 0.021951 -0.000000 0.000000 0.900000 0.000000
2.470000 0.021951 -0.000000 -0.000000 0.900000 0.000000
2.596667 0.021951 -0.000000 -0.000000 0.900000 0.000000
2.723333 0.021951 -0.000000 0.000000 0.900000 0.000000
2.850000 0.021951 -0.000000 -0.000000 0.900000 0.000000
2.976667 0.021951 -0.000000 -0.000000 0.900000 0.000000
3.103333 0.021951 -0.000000 -0.000000 0.900000 0.000000
3.230000 0.021951 -0.000000 -0.000000 0.900000 0.000000
3.356667 0.021951 -0.000000 -0.000000 0.900000 0.000000
3.483333 0.021951 -0.000000 0.000000 0.900000 0.000000
3.610000 0.021951 -0.000000 -0.000000 0.900000 0.000000
3.736667 0.021951 0.000000 0.000000 0.000000 0.000000
0.063333 0.036585 0.000000 0.000000 0.000000 0.000000
0.190000 0.036585 0.000000 -0.000000 0.900000 0.000000
0.316667 0.036585 -0.000000 0.000000 0.900000 0.000000
0.443333 0.036585 -0.000000 -0.000000 0.900000 0.000000
0.570000 0.036585 -0.000000 -0.000000 0.900000 0.000000
0.696667 0.036585 -0.000000 0.000000 0.900000 0.000000
0.823333 0.036585 -0.000000 0.000000 0.900000 0.000000
0.950000 0.036585 -0.000000 0.000000 0.900000 0.000000
1.076667 0.036585 -0.000000 -0.000000 0.900000 0.000000
1.203333 0.036585 -0.000000 -0.000000 0.900000 0.000000
1.330000 0.036585 -0.000000 0.000000 0.900000 0.000000
1.456667 0.036585 -0.000000 -0.000000 0.900000 0.000000
1.583333 0.036585 0.000000 0.000000 0.900000 0.000000
1.710000 0.036585 0.000000 -0.000000 0.900000 0.000000
1.836667 0.036585 0.000000 -0.000000 0.900000 0.000000
1.963333 0.036585 0.000000 -0.000000 0.900000 0.000000
2.090000 0.036585 0.000000 -0.000000 0.900000 0.000000
2.216667 0.036585 0.000000 -0.000000 0.900000 0.000000
2.343333 0.036585 0.000000 0.000000 0.900000 0.000000
2.470000 0.036585 0.000000 -0.000000 0.900000 0.000000
2.596667 0.036585 0.000000 0.000000 0.900000 0.000000
2.723333 0.036585 0.000000 0.000000 0.900000 0.000000
2.850000 0.036585 -0.000000 0.000000 0.900000 0.000000
2.976667 0.036585 -0.000000 0.000000 0.900000 0.000000
3.103333 0.036585 -0.000000 -0.000000 0.900000 0.000000
3.230000 0.036585 -0.000000 -0.000000 0.900000 0.000000
3.356667 0.036585 -0.000000 -0.000000 0.900000 0.000000
3.483333 0.036585 -0.000000 0.000000 0.900000 0.000000
3.610000 0.036585 -0.000000 -0.000000 0.900000 0.000000
3.736667 0.036585 0.000000 0.000000 0.000000 0.000000
0.063333 0.051220 0.000000 0.000000 0.000000 0.000000
0.190000 0.051220 0.000000 -0.000000 0.900000 0.000000
0.316667 0.051220 -0.000000 0.000000 0.900000 0.000000
0.443333 0.051220 -0.000000 0.000000 0.900000 0.000000
0.570000 0.051220 -0.000000 0.000000 0.900000 0.000000
0.696667 0.051220 -0.000000 0.000000 0.900000 0.000000
0.823333 0.051220 -0.000000 -0.000000 0.900000 0.000000
0.950000 0.051220 -0.000000 0.000000 0.900000 0.000000
1.076667 0.051220 -0.000000 -0.000000 0.900000 0.000000
1.203333 0.051220 -0.000000 -0.000000 0.900000 0.000000
1.330000 0.051220 -0.000000 0.000000 0.900000 0.000000
1.456667 0.051220 -0.000000 0.000000 0.900000 0.000000
1.583333 0.051220 0.000000 0.000000 0.900000 0.000000
1.710000 0.051220 0.000000 0.000000 0.900000 0.000000
1.836667 0.051220 0.000000 -0.000000 0.900000 0.000000
1.963333 0.051220 0.000000 -0.000000 0.900000 0.000000
2.090000 0.051220 0.000000 -0.000000 0.900000 0.000000
2.216667 0.051220 0.000000 -0.000000 0.900000 0.000000
2.343333 0.051220 0.000000 0.000000 0.900000 0.000000
2.470000 0.051220 0.000000 -0.000000 0.900000 0.000000
2.596667 0.051220 0.000000 0.000000 0.900000 0.000000
2.723333 0.051220 -0.000000 0.000000 0.900000 0.000000
2.850000 0.051220 -0.000000 0.000000 0.900000 0.000000
2.976667 0.051220 -0.000000 0.000000 0.900000 0.000000
3.103333 0.051220 -0.000000 -0.000000 0.900000 0.000000
3.230000 0.051220 -0.000000 -0.000000 0.900000 0.000000
3.356667 0.051220 -0.000000 -0.000000 0.900000 0.000000
3.483333 0.051220 -0.000000 0.000000 0.900000 0.000000
3.610000 0.051220 -0.000000 -0.000000 0.900000 0.000000
3.736667 0.051220 0.000000 0.000000 0.000000 0.000000
0.063333 0.065854 0.000000 0.000000 0.000000 0.000000
0.190000 0.065854 -0.000000 0.000000 0.900000 0.000000
0.316667 0.065854 -0.000000 0.000000 0.900000 0.000000
0.443333 0.065854 -0.000000 0.000000 0.900000 0.000000
0.570000 0.065854 -0.000000 0.000000 0.900000 0.000000
0.696667 0.065854 -0.000000 0.000000 0.900000 0.000000
0.823333 0.065854 -0.000000 -0.000000 0.900000 0.000000
0.950000 0.065854 -0.000000 0.000000 0.900000 0.000000
1.076667 0.065854 -0.000000 -0.000000 0.900000 0.000000
1.203333 0.065854 -0.000000 -0.000000 0.900000 0.000000
1.330000 0.065854 -0.000000 0.000000 0.900000 0.000000
1.456667 0.065854 -0.000000 0.000000 0.900000 0.000000
1.583333 0.065854 0.000000 0.000000 0.900000 0.000000
1.710000 0.065854 0.000000 0.000000 0.900000 0.000000
1.836667 0.065854 0.000000 -0.000000 0.900000 0.000000
1.963333 0.065854 0.000000 -0.000000 0.900000 0.000000
2.090000 0.065854 0.000000 -0.000000 0.900000 0.000000
2.216667 0.065854 0.000000 -0.000000 0.900000 0.000000
2.343333 0.065854 0.000000 -0.000000 0.900000 0.000000
2.470000 0.065854 0.000000 0.000000 0.900000 0.000000
2.596667 0.065854 0.000000 0.000000 0.900000 0.000000
2.723333 0.065854 -0.000000 0.000000 0.900000 0.000000
2.850000 0.065854 -0.000000 0.000000 0.900000 0.000000
2.976667 0.065854 -0.000000 0.000000 0.900000 0.000000
3.103333 0.065854 -0.000000 -0.000000 0.900000 0.000000
3.230000 0.065854 -0.000000 -0.000000 0.900000 0.000000
3.356667 0.065854 -0.000000 -0.000000 0.900000 0.000000
3.483333 0.065854 -0.000000 0.000000 0.900000 0.000000
3.610000 0.065854 -0.000000 -0.000000 0.900000 0.000000
3.736667 0.065854 0.000000 0.000000 0.000000 0.000000
0.063333 0.080488 0.000000 0.000000 0.000000 0.000000
0.190000 0.080488 -0.000000 0.000000 0.900000 0.000000
0.316667 0.080488 -0.000000 0.000000 0.900000 0.000000
0.443333 0.080488 -0.000000 0.000000 0.900000 0.000000
0.570000 0.080488 -0.000000 0.000000 0.900000 0.000000
0.696667 0.080488 -0.000000 0.000000 0.900000 0.000000
0.823333 0.080488 -0.000000 -0.000000 0.900000 0.000000
0.950000 0.080488 -0.000000 0.000000 0.900000 0.000000
1.076667 0.080488 -0.000000 -0.000000 0.900000 0.000000
1.203333 0.080488 -0.000000 -0.000000 0.900000 0.000000
1.330000 0.080488 -0.000000 0.000000 0.900000 0.000000
1.456667 0.080488 -0.000000 0.000000 0.900000 0.000000
1.583333 0.080488 0.000000 -0.000000 0.900000 0.000000
1.710000 0.080488 0.000000 0.000000 0.900000 0.000000
1.836667 0.080488 0.000000 -0.000000 0.900000 0.000000
1.963333 0.080488 0.000000 -0.000000 0.900000 0.000000
2.090000 0.080488 0.000000 0.000000 0.900000 0.000000
2.216667 0.080488 -0.000000 -0.000000 0.900000 0.000000
2.343333 0.080488 -0.000000 -0.000000 0.900000 0.000000
2.470000 0.080488 0.000000 0.000000 0.900000 0.000000
2.596667 0.080488 0.000000 0.000000 0.900000 0.000000
2.723333 0.080488 -0.000000 0.000000 0.900000 0.000000
2.850000 0.080488 -0.000000 0.000000 0.900000 0.000000
2.976667 0.080488 -0.000000 0.000000 0.900000 0.000000
3.103333 0.080488 -0.000000 -0.000000 0.900000 0.000000
3.230000 0.080488 -0.000000 -0.000000 0.900000 0.000000
3.356667 0.080488 -0.000000 -0.000000 0.900000 0.000000
3.483333 0.080488 -0.000000 0.000000 0.900000 0.000000
3.610000 0.080488 -0.000000 -0.000000 0.900000 0.000000
3.736667 0.080488 0.000000 0.000000 0.000000 0.000000
0.063333 0.095122 0.000000 0.000000 0.000000 0.000000
0.190000 0.095122 -0.000000 0.000000 0.900000 0.000000
0.316667 0.095122 -0.000000 0.000000 0.900000 0.000000
0.443333 0.095122 -0.000000 0.000000 0.900000 0.000000
0.570000 0.095122 -0.000000 0.000000 0.900000 0.000000
0.696667 0.095122 -0.000000 0.000000 0.900000 0.000000
0.823333 0.095122 -0.000000 -0.000000 0.900000 0.000000
0.950000 0.095122 -0.000000 0.000000 0.900000 0.000000
1.076667 0.095122 -0.000000 -0.000000 0.900000 0.000000
1.203333 0.095122 -0.000000 -0.000000 0.900000 0.000000
1.330000 0.095122 -0.000000 0.000000 0.900000 0.000000
1.456667 0.095122 -0.000000 0.000000 0.900000 0.000000
1.583333 0.095122 0.000000 -0.000000 0.900000 0.000000
1.710000 0.095122 0.000000 0.000000 0.900000 0.000000
1.836667 0.095122 0.000000 -0.000000 0.900000 0.000000
1.963333 0.095122 0.000000 -0.000000 0.900000 0.000000
2.090000 0.095122 0.000000 -0.000000 0.900000 0.000000
2.216667 0.095122 -0.000000 -0.000000 0.900000 0.000000
2.343333 0.095122 -0.000000 -0.000000 0.900000 0.000000
2.470000 0.095122 -0.000000 0.000000 0.900000 0.000000
2.596667 0.095122 -0.000000 0.000000 0.900000 0.000000
2.723333 0.095122 -0.000000 0.000000 0.900000 0.000000
2.850000 0.095122 -0.000000 0.000000 0.900000 0.000000
2.976667 0.095122 -0.000000 0.000000 0.900000 0.000000
3.103333 0.095122 -0.000000 -0.000000 0.900000 0.000000
3.230000 0.095122 -0.000000 -0.000000 0.900000 0.000000
3.356667 0.095122 -0.000000 -0.000000 0.900000 0.000000
3.483333 0.095122 -0.000000 0.000000 0.900000 0.000000
3.610000 0.095122 -0.000000 -0.000000 0.900000 0.000000
3.736667 0.095122 0.000000 0.000000 0.000000 0.000000
0.063333 0.109756 0.000000 0.000000 0.000000 0.000000
0.190000 0.109756 -0.000000 0.000000 0.900000 0.000000
0.316667 0.109756 -0.000000 0.000000 0.900000 0.000000
0.443333 0.109756 -0.000000 0.000000 0.900000 0.000000
0.570000 0.109756 -0.000000 0.000000 0.900000 0.000000
0.696667 0.109756 -0.000000 0.000000 0.900000 0.000000
0.823333 0.109756 -0.000000 -0.000000 0.900000 0.000000
0.950000 0.109756 -0.000000 0.000000 0.900000 0.000000
1.076667 0.109756 -0.000000 -0.000000 0.900000 0.000000
1.203333 0.109756 -0.000000 -0.000000 0.900000 0.000000
1.330000 0.109756 -0.000000 -0.000000 0.900000 0.000000
1.456667 0.109756 -0.000000 0.000000 0.900000 0.000000
1.583333 0.109756 0.000000 -0.000000 0.900000 0.000000
1.710000 0.109756 0.000000 0.000000 0.900000 0.000000
1.836667 0.109756 0.000000 -0.000000 0.900000 0.000000
1.963333 0.109756 0.000000 -0.000000 0.900000 0.000000
2.090000 0.109756 0.000000 -0.000000 0.900000 0.000000
2.216667 0.109756 -0.000000 -0.000000 0.900000 0.000000
2.343333 0.109756 -0.000000 -0.000000 0.900000 0.000000
2.470000 0.109756 -0.000000 0.000000 0.900000 0.000000
2.596667 0.109756 -0.000000 0.000000 0.900000 0.000000
2.723333 0.109756 -0.000000 0.000000 0.900000 0.000000
2.850000 0.109756 -0.000000 0.000000 0.900000 0.000000
2.976667 0.109756 -0.000000 0.000000 0.900000 0.000000
3.103333 0.109756 -0.000000 -0.000000 0.900000 0.000000
3.230000 0.109756 -0.000000 -0.000000 0.900000 0.000000
3.356667 0.109756 -0.000000 -0.000000 0.900000 0.000000
3.483333 0.109756 -0.000000 0.000000 0.900000 0.000000
3.610000 0.109756 -0.000000 -0.000000 0.900000 0.000000
3.736667 0.109756 0.000000 0.000000 0.000000 0.000000
0.063333 0.124390 0.000000 0.000000 0.000000 0.000000
0.190000 0.124390 -0.000000 0.000000 0.900000 0.000000
0.316667 0.124390 -0.000000 0.000000 0.900000 0.000000
0.443333 0.124390 -0.000000 0.000000 0.900000 0.000000
0.570000 0.124390 -0.000000 0.000000 0.900000 0.000000
0.696667 0.124390 -0.000000 0.000000 0.900000 0.000000
0.823333 0.124390 -0.000000 -0.000000 0.900000 0.000000
0.950000 0.124390 -0.000000 0.000000 0.900000 0.000000
1.076667 0.124390 -0.000000 -0.000000 0.900000 0.000000
1.203333 0.124390 -0.000000 -0.000000 0.900000 0.000000
1.330000 0.124390 -0.000000 -0.000000 0.900000 0.000000
1.456667 0.124390 -0.000000 0.000000 0.900000 0.000000
1.583333 0.124390 0.000000 -0.000000 0.900000 0.000000
1.710000 0.124390 0.000000 0.000000 0.900000 0.000000
1.836667 0.124390 0.000000 -0.000000 0.900000 0.000000
1.963333 0.124390 0.000000 -0.000000 0.900000 0.000000
2.090000 0.124390 0.000000 -0.000000 0.900000 0.000000
2.216667 0.124390 -0.000000 -0.000000 0.900000 0.000000
2.343333 0.124390 -0.000000 -0.000000 0.900000 0.000000
2.470000 0.124390 -0.000000 0.000000 0.900000 0.000000
2.596667 0.124390 -0.000000 0.000000 0.900000 0.000000
2.723333 0.124390 -0.000000 0.000000 0.900000 0.000000
2.850000 0.124390 -0.000000 0.000000 0.900000 0.000000
2.976667 0.124390 -0.000000 0.000000 0.900000 0.000000
3.103333 0.124390 -0.000000 -0.000000 0.900000 0.000000
3.230000 0.124390 -0.000000 -0.000000 0.900000 0.000000
3.356667 0.124390 -0.000000 -0.000000 0.900000 0.000000
3.483333 0.124390 -0.000000 0.000000 0.900000 0.000000
3.610000 0.124390 -0.000000 -0.000000 0.900000 0.000000
3.736667 0.124390 0.000000 0.000000 0.000000 0.000000
0.063333 0.139024 0.000000 0.000000 0.000000 0.000000
0.190000 0.139024 -0.000000 0.000000 0.900000 0.000000
0.316667 0.139024 -0.000000 0.000000 0.900000 0.000000
0.443333 0.139024 -0.000000 0.000000 0.900000 0.000000
0.570000 0.139024 -0.000000 0.000000 0.900000 0.000000
0.696667 0.139024 -0.000000 0.000000 0.899997 0.000000
0.823333 0.139024 -0.000000 -0.000000 0.899992 0.000000
0.950000 0.139024 -0.000000 0.000000 0.899999 0.000000
1.076667 0.139024 -0.000000 -0.000000 0.899998 0.000000
1.203333 0.139024 -0.000000 -0.000000 0.899998 0.000000
1.330000 0.139024 -0.000000 -0.000000 0.899999 0.000000
1.456667 0.139024 -0.000000 0.000000 0.899999 0.000000
1.583333 0.139024 -0.000000 -0.000000 0.900000 0.000000
1.710000 0.139024 0.000000 0.000000 0.900000 0.000000
1.836667 0.139024 0.000000 -0.000000 0.900000 0.000000
1.963333 0.139024 0.000000 -0.000000 0.900000 0.000000
2.090000 0.139024 0.000000 -0.000000 0.900000 0.000000
2.216667 0.139024 -0.000000 -0.000000 0.900000 0.000000
2.343333 0.139024 -0.000000 -0.000000 0.900000 0.000000
2.470000 0.139024 -0.000000 0.000000 0.900000 0.000000
2.596667 0.139024 -0.000000 0.000000 0.900000 0.000000
2.723333 0.139024 -0.000000 0.000000 0.900000 0.000000
2.850000 0.139024 -0.000000 0.000000 0.900000 0.000000
2.976667 0.139024 -0.000000 0.000000 0.900000 0.000000
3.103333 0.139024 -0.000000 -0.000000 0.900000 0.000000
3.230000 0.139024 -0.000000 -0.000000 0.900000 0.000000
3.356667 0.139024 -0.000000 -0.000000 0.900000 0.000000
3.483333 0.139024 -0.000000 0.000000 0.900000 0.000000
3.610000 0.139024 -0.000000 -0.000000 0.900000 0.000000
3.736667 0.139024 0.000000 0.000000 0.000000 0.000000
0.063333 0.153659 0.000000 0.000000 0.000000 0.000000
0.190000 0.153659 -0.000000 0.000000 0.900000 0.000000
0.316667 0.153659 -0.000000 0.000000 0.900000 0.000000
0.443333 0.153659 -0.000000 0.000000 0.899997 0.000000
0.570000 0.153659 -0.000000 0.000000 0.900000 0.000000
0.696667 0.153659 -0.000001 0.000000 0.899858 0.000001
0.823333 0.153659 -0.000001 -0.000002 0.899725 0.000002
0.950000 0.153659 -0.000001 -0.000000 0.899959 0.000001
1.076667 0.153659 -0.000003 -0.000001 0.899886 0.000004
1.203333 0.153659 -0.000003 -0.000000 0.899899 0.000003
1.330000 0.153659 -0.000001 -0.000000 0.899971 0.000001
1.456667 0.153659 -0.000000 0.000000 0.899995 0.000000
1.583333 0.153659 -0.000000 -0.000000 0.899991 0.000000
1.710000 0.153659 -0.000000 0.000000 0.900000 0.000000
1.836667 0.153659 0.000000 -0.000000 0.899998 0.000000
1.963333 0.153659 0.000000 -0.000000 0.899999 0.000000
2.090000 0.153659 0.000000 -0.000000 0.899991 0.000000
2.216667 0.153659 -0.000000 -0.000000 0.899998 0.000000
2.343333 0.153659 -0.000000 -0.000000 0.899998 0.000000
2.470000 0.153659 -0.000000 0.000000 0.900000 0.000000
2.596667 0.153659 -0.000000 0.000000 0.900000 0.000000
2.723333 0.153659 -0.000000 0.000000 0.900000 0.000000
2.850000 0.153659 -0.000000 0.000000 0.900000 0.000000
2.976667 0.153659 -0.000000 0.000000 0.900000 0.000000
3.103333 0.153659 -0.000000 -0.000000 0.900000 0.000000
3.230000 0.153659 -0.000000 -0.000000 0.899993 0.000000
3.356667 0.153659 -0.000000 -0.000000 0.899998 0.000000
3.483333 0.153659 -0.000000 -0.000000 0.900000 0.000000
3.610000 0.153659 -0.000000 -0.000000 0.899997 0.000000
3.736667 0.153659 0.000000 0.000000 0.000000 0.000000
0.063333 0.168293 0.000000 0.000000 0.000000 0.000000
0.190000 0.168293 -0.000000 0.000000 0.900000 0.000000
0.316667 0.168293 -0.000000 0.000000 0.899995 0.000000
0.443333 0.168293 -0.000003 0.000001 0.899807 0.000004
0.570000 0.168293 -0.000000 0.000000 0.899990 0.000000
0.696667 0.168293 -0.000039 0.000004 0.895274 0.000039
0.823333 0.168293 -0.000019 -0.000045 0.892387 0.000048
0.950000 0.168293 -0.000035 -0.000008 0.897571 0.000036
1.076667 0.168293 -0.000108 -0.000024 0.895910 0.000111
1.203333 0.168293 -0.000087 -0.000021 0.896370 0.000090
1.330000 0.168293 -0.000035 -0.000008 0.898533 0.000036
1.456667 0.168293 -0.000019 -0.000003 0.898907 0.000019
1.583333 0.168293 -0.000006 -0.000003 0.899521 0.000006
1.710000 0.168293 -0.000000 0.000000 0.899999 0.000000
1.836667 0.168293 0.000001 -0.000000 0.899876 0.000001
1.963333 0.168293 0.000001 -0.000000 0.899913 0.000001
2.090000 0.168293 0.000001 -0.000001 0.899668 0.000001
2.216667 0.168293 -0.000002 -0.000000 0.899866 0.000002
2.343333 0.168293 -0.000002 -0.000000 0.899917 0.000002
2.470000 0.168293 -0.000000 0.000000 0.900000 0.000000
2.596667 0.168293 -0.000000 0.000000 0.899999 0.000000
2.723333 0.168293 -0.000000 0.000000 0.899999 0.000000
2.850000 0.168293 -0.000000 0.000000 0.900000 0.000000
2.976667 0.168293 -0.000000 0.000000 0.899999 0.000000
3.103333 0.168293 -0.000000 -0.000000 0.899998 0.000000
3.230000 0.168293 -0.000006 -0.000002 0.899863 0.000006
3.356667 0.168293 -0.000003 -0.000001 0.899944 0.000003
3.483333 0.168293 -0.000000 -0.000000 0.899986 0.000000
3.610000 0.168293 -0.000001 -0.000001 0.899908 0.000001
3.736667 0.168293 0.000000 0.000000 0.000000 0.000000
0.063333 0.182927 0.000000 0.000000 0.000000 0.000000
0.190000 0.182927 -0.000730 0.003487 0.705068 0.003563
0.316667 0.182927 -0.000398 0.002583 0.717748 0.002613
0.443333 0.182927 0.001254 0.001246 0.729341 0.001768
0.570000 0.182927 0.001892 0.000462 0.748783 0.001948
0.696667 0.182927 0.001772 -0.000009 0.772895 0.001772
0.823333 0.182927 0.001923 -0.000556 0.785480 0.002002
0.950000 0.182927 0.000289 -0.000345 0.807638 0.000450
1.076667 0.182927 -0.000966 -0.000438 0.820965 0.001061
1.203333 0.182927 -0.000824 -0.000400 0.831946 0.000916
1.330000 0.182927 -0.000660 -0.000232 0.854903 0.000699
1.456667 0.182927 -0.000362 -0.000140 0.866949 0.000388
1.583333 0.182927 -0.000146 -0.000063 0.883851 0.000159
1.710000 0.182927 -0.000013 0.000000 0.898507 0.000013
1.836667 0.182927 -0.000002 -0.000005 0.894871 0.000005
1.963333 0.182927 0.000009 -0.000009 0.894022 0.000013
2.090000 0.182927 -0.000008 -0.000026 0.889209 0.000027
2.216667 0.182927 -0.000100 -0.000018 0.892943 0.000101
2.343333 0.182927 -0.000109 -0.000003 0.896756 0.000109
2.470000 0.182927 -0.000001 0.000000 0.899954 0.000001
2.596667 0.182927 -0.000001 0.000000 0.899911 0.000001
2.723333 0.182927 -0.000002 0.000000 0.899936 0.000002
2.850000 0.182927 -0.000002 0.000000 0.899949 0.000002
2.976667 0.182927 -0.000004 0.000000 0.899884 0.000004
3.103333 0.182927 -0.000005 -0.000000 0.899844 0.000005
3.230000 0.182927 -0.000094 -0.000032 0.897728 0.000099
3.356667 0.182927 -0.000073 -0.000014 0.898590 0.000074
3.483333 0.182927 -0.000029 -0.000004 0.899157 0.000030
3.610000 0.182927 -0.000022 -0.000024 0.897746 0.000033
3.736667 0.182927 0.000000 0.000000 0.000000 0.000000
0.063333 0.197561 0.000000 0.000000 0.000000 0.000000
0.190000 0.197561 0.001405 0.005285 0.619975 0.005468
0.316667 0.197561 0.004494 0.003696 0.616803 0.005818
0.443333 0.197561 0.008093 0.002144 0.610700 0.008372
0.570000 0.197561 0.010825 0.001286 0.608484 0.010901
0.696667 0.197561 0.010522 0.000029 0.607717 0.010522
0.823333 0.197561 0.010686 -0.001086 0.600638 0.010741
0.950000 0.197561 0.006177 -0.000996 0.601666 0.006257
1.076667 0.197561 -0.000067 -0.001385 0.600156 0.001387
1.203333 0.197561 -0.001581 -0.001623 0.600131 0.002266
1.330000 0.197561 -0.004154 -0.000910 0.601237 0.004253
1.456667 0.197561 -0.004158 -0.001387 0.605593 0.004384
1.583333 0.197561 -0.003673 -0.000316 0.610939 0.003687
1.710000 0.197561 -0.003949 0.000263 0.633989 0.003958
1.836667 0.197561 -0.002084 -0.000197 0.648512 0.002093
1.963333 0.197561 -0.001455 -0.000543 0.664722 0.001553
2.090000 0.197561 -0.001478 -0.000801 0.677683 0.001681
2.216667 0.197561 -0.003650 -0.000542 0.700898 0.003690
2.343333 0.197561 -0.006251 0.000053 0.723307 0.006252
2.470000 0.197561 -0.003572 0.000580 0.761658 0.003618
2.596667 0.197561 -0.001527 0.000496 0.779320 0.001605
2.723333 0.197561 -0.002241 0.000295 0.805778 0.002260
2.850000 0.197561 -0.002181 0.000175 0.833975 0.002188
2.976667 0.197561 -0.001078 0.000054 0.861271 0.001080
3.103333 0.197561 -0.000407 -0.000048 0.884888 0.000410
3.230000 0.197561 -0.001274 -0.000312 0.870046 0.001312
3.356667 0.197561 -0.001399 -0.000235 0.874434 0.001419
3.483333 0.197561 -0.000878 -0.000176 0.876622 0.000896
3.610000 0.197561 -0.000359 -0.000400 0.866684 0.000537
3.736667 0.197561 0.000000 0.000000 0.000000 0.000000
0.063333 0.212195 0.000000 0.000000 0.000000 0.000000
0.190000 0.212195 0.001452 0.005379 0.602321 0.005571
0.316667 0.212195 0.004498 0.003429 0.601272 0.005656
0.443333 0.212195 0.008046 0.002007 0.600454 0.008292
0.570000 0.212195 0.011065 0.001229 0.600253 0.011133
0.696667 0.212195 0.010222 0.000101 0.600338 0.010222
0.823333 0.212195 0.009989 -0.000999 0.600008 0.010039
0.950000 0.212195 0.006020 -0.000898 0.600005 0.006086
1.076667 0.212195 -0.000315 -0.001147 0.600000 0.001189
1.203333 0.212195 -0.001973 -0.001473 0.600000 0.002462
1.330000 0.212195 -0.004042 -0.000319 0.600019 0.004054
1.456667 0.212195 -0.003232 -0.001778 0.600161 0.003689
1.583333 0.212195 -0.001541 0.000160 0.600078 0.001550
1.710000 0.212195 -0.001360 0.000453 0.600851 0.001434
1.836667 0.212195 0.000170 -0.000233 0.600402 0.000289
1.963333 0.212195 0.000267 -0.000936 0.600020 0.000974
2.090000 0.212195 -0.000027 -0.001659 0.600000 0.001659
2.216667 0.212195 -0.003840 -0.000838 0.600002 0.003930
2.343333 0.212195 -0.008674 0.000234 0.600245 0.008677
2.470000 0.212195 -0.006762 0.000834 0.606491 0.006814
2.596667 0.212195 -0.004388 0.001069 0.606426 0.004516
2.723333 0.212195 -0.007287 0.000551 0.606692 0.007308
2.850000 0.212195 -0.010175 0.000611 0.609004 0.010193
2.976667 0.212195 -0.010364 -0.000057 0.606940 0.010364
3.103333 0.212195 -0.011749 -0.000507 0.603383 0.011760
3.230000 0.212195 -0.014282 -0.001888 0.612978 0.014406
3.356667 0.212195 -0.014379 -0.002130 0.635761 0.014536
3.483333 0.212195 -0.008602 -0.002457 0.653314 0.008946
3.610000 0.212195 -0.002106 -0.003078 0.665657 0.003730
3.736667 0.212195 0.000000 0.000000 0.000000 0.000000
0.063333 0.226829 0.000000 0.000000 0.000000 0.000000
0.190000 0.226829 0.001490 0.005156 0.600184 0.005367
0.316667 0.226829 0.004644 0.002984 0.600060 0.005521
0.443333 0.226829 0.008390 0.001795 0.600012 0.008580
0.570000 0.226829 0.011201 0.001071 0.600005 0.011253
0.696667 0.226829 0.010503 0.000222 0.600015 0.010505
0.823333 0.226829 0.010547 -0.000930 0.600000 0.010588
0.950000 0.226829 0.006412 -0.000778 0.600000 0.006459
1.076667 0.226829 0.000309 -0.000970 0.600000 0.001018
1.203333 0.226829 -0.001767 -0.001258 0.600000 0.002169
1.330000 0.226829 -0.004147 0.000065 0.600000 0.004148
1.456667 0.226829 -0.003089 -0.002382 0.600000 0.003900
1.583333 0.226829 -0.001223 0.000243 0.600001 0.001246
1.710000 0.226829 -0.000851 0.000423 0.600018 0.000950
1.836667 0.226829 0.000603 -0.000255 0.600003 0.000655
1.963333 0.226829 0.000652 -0.001201 0.600000 0.001366
2.090000 0.226829 0.000391 -0.002336 0.600000 0.002369
2.216667 0.226829 -0.003281 -0.000792 0.600000 0.003376
2.343333 0.226829 -0.007437 0.000275 0.600002 0.007442
2.470000 0.226829 -0.005928 0.000801 0.600137 0.005982
2.596667 0.226829 -0.004147 0.001001 0.600110 0.004266
2.723333 0.226829 -0.007626 0.000377 0.600097 0.007636
2.850000 0.226829 -0.010752 0.000628 0.600179 0.010770
2.976667 0.226829 -0.010795 -0.000091 0.600095 0.010796
3.103333 0.226829 -0.011596 -0.000177 0.600029 0.011597
3.230000 0.226829 -0.012413 -0.001181 0.600000 0.012469
3.356667 0.226829 -0.012859 -0.001993 0.600000 0.013013
3.483333 0.226829 -0.007773 -0.003524 0.600000 0.008535
3.610000 0.226829 -0.001612 -0.003997 0.600000 0.004310
3.736667 0.226829 0.000000 0.000000 0.000000 0.000000
0.063333 0.241463 0.000000 0.000000 0.000000 0.000000
0.190000 0.241463 0.001551 0.004894 0.600011 0.005134
0.316667 0.241463 0.004829 0.002509 0.600002 0.005442
0.443333 0.241463 0.008776 0.001541 0.600000 0.008910
0.570000 0.241463 0.011298 0.000996 0.600000 0.011341
0.696667 0.241463 0.010717 0.000234 0.600000 0.010720
0.823333 0.241463 0.011083 -0.000798 0.600000 0.011111
0.950000 0.241463 0.006767 -0.000651 0.600000 0.006798
1.076667 0.241463 0.000881 -0.000847 0.600000 0.001222
1.203333 0.241463 -0.001060 -0.000957 0.600000 0.001428
1.330000 0.241463 -0.002892 0.000386 0.600000 0.002918
1.456667 0.241463 -0.002102 -0.002898 0.600000 0.003580
1.583333 0.241463 -0.000909 0.000265 0.600000 0.000947
1.710000 0.241463 -0.000371 0.000360 0.600000 0.000518
1.836667 0.241463 0.001055 -0.000293 0.600000 0.001095
1.963333 0.241463 0.000950 -0.001509 0.600000 0.001783
2.090000 0.241463 0.000670 -0.003105 0.600000 0.003177
2.216667 0.241463 -0.002825 -0.000771 0.600000 0.002929
2.343333 0.241463 -0.006557 0.000212 0.600000 0.006560
2.470000 0.241463 -0.005235 0.000909 0.600002 0.005313
2.596667 0.241463 -0.003893 0.000894 0.600001 0.003994
2.723333 0.241463 -0.008045 0.000374 0.600001 0.008054
2.850000 0.241463 -0.011191 0.000514 0.600003 0.011203
2.976667 0.241463 -0.010483 -0.000015 0.600001 0.010483
3.103333 0.241463 -0.011546 -0.000061 0.600000 0.011546
3.230000 0.241463 -0.012548 -0.000622 0.600000 0.012564
3.356667 0.241463 -0.012998 -0.001510 0.600000 0.013085
3.483333 0.241463 -0.008012 -0.003928 0.600000 0.008923
3.610000 0.241463 -0.001750 -0.003894 0.600000 0.004269
3.736667 0.241463 0.000000 0.000000 0.000000 0.000000
0.063333 0.256098 0.000000 0.000000 0.000000 0.000000
0.190000 0.256098 0.001412 0.004647 0.600000 0.004856
0.316667 0.256098 0.004508 0.002030 0.600000 0.004944
0.443333 0.256098 0.008447 0.001260 0.600000 0.008541
0.570000 0.256098 0.011063 0.000963 0.600000 0.011104
0.696667 0.256098 0.010351 0.000210 0.600000 0.010353
0.823333 0.256098 0.010610 -0.000630 0.600000 0.010629
0.950000 0.256098 0.006660 -0.000531 0.600000 0.006681
1.076667 0.256098 0.000722 -0.000713 0.600000 0.001015
1.203333 0.256098 -0.001017 -0.000697 0.600000 0.001233
1.330000 0.256098 -0.001686 0.000619 0.600000 0.001796
1.456667 0.256098 -0.001107 -0.003251 0.600000 0.003434
1.583333 0.256098 -0.000600 0.000084 0.600000 0.000606
1.710000 0.256098 -0.000487 0.000347 0.600000 0.000598
1.836667 0.256098 0.000261 -0.000351 0.600000 0.000437
1.963333 0.256098 -0.000135 -0.001591 0.600000 0.001597
2.090000 0.256098 -0.000249 -0.003537 0.600000 0.003545
2.216667 0.256098 -0.003544 -0.000728 0.600000 0.003618
2.343333 0.256098 -0.007930 0.000170 0.600000 0.007932
2.470000 0.256098 -0.006588 0.001010 0.600000 0.006664
2.596667 0.256098 -0.004836 0.000796 0.600000 0.004901
2.723333 0.256098 -0.008372 0.000413 0.600000 0.008382
2.850000 0.256098 -0.010862 0.000328 0.600000 0.010867
2.976667 0.256098 -0.009887 0.000031 0.600000 0.009887
3.103333 0.256098 -0.011371 0.000162 0.600000 0.011372
3.230000 0.256098 -0.012821 -0.000105 0.600000 0.012821
3.356667 0.256098 -0.012798 -0.001066 0.600000 0.012842
3.483333 0.256098 -0.007941 -0.004300 0.600000 0.009030
3.610000 0.256098 -0.001860 -0.003824 0.600000 0.004252
3.736667 0.256098 0.000000 0.000000 0.000000 0.000000
0.063333 0.270732 0.000000 0.000000 0.000000 0.000000
0.190000 0.270732 0.001257 0.004442 0.600000 0.004616