TITLE="(Vx,Vy)"
VARIABLES=X,Y,Vx,Vy,Vm,V
ZONE T="T-Dummy" I=30, J=41, F=POINT
0.063333 0.007317 0.000000 0.000000 0.000000 0.000000
0.190000 0.007317 0.000000 0.000000 0.000000 0.000000
0.316667 0.007317 0.000000 0.000000 0.000000 0.000000
0.443333 0.007317 0.000000 0.000000 0.000000 0.000000
0.570000 0.007317 0.000000 0.000000 0.000000 0.000000
0.696667 0.007317 0.000000 0.000000 0.000000 0.000000
0.823333 0.007317 0.000000 0.000000 0.000000 0.000000
0.950000 0.007317 0.000000 0.000000 0.000000 0.000000
1.076667 0.007317 0.000000 0.000000 0.000000 0.000000
1.203333 0.007317 0.000000 0.000000 0.000000 0.000000
1.330000 0.007317 0.000000 0.000000 0.000000 0.000000
1.456667 0.007317 0.000000 0.000000 0.000000 0.000000
1.583333 0.007317 0.000000 0.000000 0.000000 0.000000
1.710000 0.007317 0.000000 0.000000 0.000000 0.000000
1.836667 0.007317 0.000000 0.000000 0.000000 0.000000
1.963333 0.007317 0.000000 0.000000 0.000000 0.000000
2.090000 0.007317 0.000000 0.000000 0.000000 0.000000
2.216667 0.007317 0.000000 0.000000 0.000000 0.000000
2.343333 0.007317 0.000000 0.000000 0.000000 0.000000
2.470000 0.007317 0.000000 0.000000 0.000000 0.000000
2.596667 0.007317 0.000000 0.000000 0.000000 0.000000
2.723333 0.007317 0.000000 0.000000 0.000000 0.000000
2.850000 0.007317 0.000000 0.000000 0.000000 0.000000
2.976667 0.007317 0.000000 0.000000 0.000000 0.000000
3.103333 0.007317 0.000000 0.000000 0.000000 0.000000
3.230000 0.007317 0.000000 0.000000 0.000000 0.000000
3.356667 0.007317 0.000000 0.000000 0.000000 0.000000
3.483333 0.007317 0.000000 0.000000 0.000000 0.000000
3.610000 0.007317 0.000000 0.000000 0.000000 0.000000
3.736667 0.007317 0.000000 0.000000 0.000000 0.000000
0.063333 0.021951 0.000000 0.000000 0.000000 0.000000
0.190000 0.021951 -0.000000 0.000000 0.900000 0.000000
0.316667 0.021951 -0.000000 -0.000000 0.900000 0.000000
0.443333 0.021951 -0.000000 -0.000000 0.900000 0.000000
0.570000 0.021951 -0.000000 0.000000 0.900000 0.000000
0.696667 0.021951 -0.000000 0.000000 0.900000 0.000000
0.823333 0.021951 -0.000000 -0.000000 0.900000 0.000000
0.950000 0.021951 -0.000000 -0.000000 0.900000 0.000000
1.076667 0.021951 -0.000000 -0.000000 0.900000 0.000000
1.203333 0.021951 -0.000000 -0.000000 0.900000 0.000000
1.330000 0.021951 -0.000000 -0.000000 0.900000 0.000000
1.456667 0.021951 -0.000000 -0.000000 0.900000 0.000000
1.583333 0.021951 -0.000000 -0.000000 0.900000 0.000000
1.710000 0.021951 -0.000000 0.000000 0.900000 0.000000
1.836667 0.021951 -0.000000 0.000000 0.900000 0.000000
1.963333 0.021951 -0.000000 0.000000 0.900000 0.000000
2.090000 0.021951 -0.000000 -0.000000 0.900000 0.000000
2.216667 0.021951 -0.000000 -0.000000 0.900000 0.000000
2.343333 0.021951 -0.000000 -0.000000 0.900000 0.000000
2.470000 0.021951 -0.000000 -0.000000 0.900000 0.000000
2.596667 0.021951 -0.000000 -0.000000 0.900000 0.000000
2.723333 0.021951 -0.000000 -0.000000 0.900000 0.000000
2.850000 0.021951 -0.000000 -0.000000 0.900000 0.000000
2.976667 0.021951 -0.000000 -0.000000 0.900000 0.000000
3.103333 0.021951 0.000000 -0.000000 0.900000 0.000000
3.230000 0.021951 0.000000 -0.000000 0.900000 0.000000
3.356667 0.021951 0.000000 -0.000000 0.900000 0.000000
3.483333 0.021951 0.000000 0.000000 0.900000 0.000000
3.610000 0.021951 0.000000 0.000000 0.900000 0.000000
3.736667 0.021951 0.000000 0.000000 0.000000 0.000000
0.063333 0.036585 0.000000 0.000000 0.000000 0.000000
0.190000 0.036585 -0.000000 0.000000 0.900000 0.000000
0.316667 0.036585 -0.000000 -0.000000 0.900000 0.000000
0.443333 0.036585 -0.000000 -0.000000 0.900000 0.000000
0.570000 0.036585 -0.000000 0.000000 0.900000 0.000000
0.696667 0.036585 -0.000000 0.000000 0.900000 0.000000
0.823333 0.036585 -0.000000 -0.000000 0.900000 0.000000
0.950000 0.036585 -0.000000 -0.000000 0.900000 0.000000
1.076667 0.036585 -0.000000 -0.000000 0.900000 0.000000
1.203333 0.036585 -0.000000 -0.000000 0.900000 0.000000
1.330000 0.036585 -0.000000 -0.000000 0.900000 0.000000
1.456667 0.036585 -0.000000 -0.000000 0.900000 0.000000
1.583333 0.036585 -0.000000 -0.000000 0.900000 0.000000
1.710000 0.036585 -0.000000 0.000000 0.900000 0.000000
1.836667 0.036585 -0.000000 0.000000 0.900000 0.000000
1.963333 0.036585 -0.000000 0.000000 0.900000 0.000000
2.090000 0.036585 -0.000000 -0.000000 0.900000 0.000000
2.216667 0.036585 -0.000000 -0.000000 0.900000 0.000000
2.343333 0.036585 -0.000000 -0.000000 0.900000 0.000000
2.470000 0.036585 -0.000000 -0.000000 0.900000 0.000000
2.596667 0.036585 -0.000000 -0.000000 0.900000 0.000000
2.723333 0.036585 -0.000000 -0.000000 0.900000 0.000000
2.850000 0.036585 -0.000000 -0.000000 0.900000 0.000000
2.976667 0.036585 -0.000000 -0.000000 0.900000 0.000000
3.103333 0.036585 -0.000000 -0.000000 0.900000 0.000000
3.230000 0.036585 -0.000000 -0.000000 0.900000 0.000000
3.356667 0.036585 0.000000 -0.000000 0.900000 0.000000
3.483333 0.036585 0.000000 0.000000 0.900000 0.000000
3.610000 0.036585 0.000000 0.000000 0.900000 0.000000
3.736667 0.036585 0.000000 0.000000 0.000000 0.000000
0.063333 0.051220 0.000000 0.000000 0.000000 0.000000
0.190000 0.051220 -0.000000 0.000000 0.900000 0.000000
0.316667 0.051220 -0.000000 -0.000000 0.900000 0.000000
0.443333 0.051220 -0.000000 -0.000000 0.900000 0.000000
0.570000 0.051220 -0.000000 -0.000000 0.900000 0.000000
0.696667 0.051220 -0.000000 0.000000 0.900000 0.000000
0.823333 0.051220 -0.000000 -0.000000 0.900000 0.000000
0.950000 0.051220 -0.000000 -0.000000 0.900000 0.000000
1.076667 0.051220 -0.000000 -0.000000 0.900000 0.000000
1.203333 0.051220 -0.000000 -0.000000 0.900000 0.000000
1.330000 0.051220 -0.000000 -0.000000 0.900000 0.000000
1.456667 0.051220 -0.000000 -0.000000 0.900000 0.000000
1.583333 0.051220 -0.000000 -0.000000 0.900000 0.000000
1.710000 0.051220 -0.000000 0.000000 0.900000 0.000000
1.836667 0.051220 -0.000000 0.000000 0.900000 0.000000
1.963333 0.051220 -0.000000 0.000000 0.900000 0.000000
2.090000 0.051220 -0.000000 -0.000000 0.900000 0.000000
2.216667 0.051220 -0.000000 -0.000000 0.900000 0.000000
2.343333 0.051220 -0.000000 -0.000000 0.900000 0.000000
2.470000 0.051220 -0.000000 -0.000000 0.900000 0.000000
2.596667 0.051220 -0.000000 -0.000000 0.900000 0.000000
2.723333 0.051220 -0.000000 -0.000000 0.900000 0.000000
2.850000 0.051220 -0.000000 -0.000000 0.900000 0.000000
2.976667 0.051220 -0.000000 -0.000000 0.900000 0.000000
3.103333 0.051220 -0.000000 -0.000000 0.900000 0.000000
3.230000 0.051220 -0.000000 -0.000000 0.900000 0.000000
3.356667 0.051220 0.000000 -0.000000 0.900000 0.000000
3.483333 0.051220 0.000000 -0.000000 0.900000 0.000000
3.610000 0.051220 0.000000 0.000000 0.900000 0.000000
3.736667 0.051220 0.000000 0.000000 0.000000 0.000000
0.063333 0.065854 0.000000 0.000000 0.000000 0.000000
0.190000 0.065854 -0.000000 0.000000 0.900000 0.000000
0.316667 0.065854 -0.000000 -0.000000 0.900000 0.000000
0.443333 0.065854 -0.000000 -0.000000 0.900000 0.000000
0.570000 0.065854 -0.000000 -0.000000 0.900000 0.000000
0.696667 0.065854 -0.000000 0.000000 0.900000 0.000000
0.823333 0.065854 -0.000000 -0.000000 0.900000 0.000000
0.950000 0.065854 -0.000000 -0.000000 0.900000 0.000000
1.076667 0.065854 -0.000000 -0.000000 0.900000 0.000000
1.203333 0.065854 -0.000000 -0.000000 0.900000 0.000000
1.330000 0.065854 -0.000000 -0.000000 0.900000 0.000000
1.456667 0.065854 -0.000000 -0.000000 0.900000 0.000000
1.583333 0.065854 -0.000000 -0.000000 0.900000 0.000000
1.710000 0.065854 -0.000000 0.000000 0.900000 0.000000
1.836667 0.065854 -0.000000 0.000000 0.900000 0.000000
1.963333 0.065854 -0.000000 0.000000 0.900000 0.000000
2.090000 0.065854 -0.000000 -0.000000 0.900000 0.000000
2.216667 0.065854 -0.000000 -0.000000 0.900000 0.000000
2.343333 0.065854 -0.000000 -0.000000 0.900000 0.000000
2.470000 0.065854 -0.000000 -0.000000 0.900000 0.000000
2.596667 0.065854 -0.000000 -0.000000 0.900000 0.000000
2.723333 0.065854 -0.000000 -0.000000 0.900000 0.000000
2.850000 0.065854 -0.000000 -0.000000 0.900000 0.000000
2.976667 0.065854 -0.000000 -0.000000 0.900000 0.000000
3.103333 0.065854 -0.000000 -0.000000 0.900000 0.000000
3.230000 0.065854 -0.000000 -0.000000 0.900000 0.000000
3.356667 0.065854 0.000000 -0.000000 0.900000 0.000000
3.483333 0.065854 0.000000 -0.000000 0.900000 0.000000
3.610000 0.065854 0.000000 0.000000 0.900000 0.000000
3.736667 0.065854 0.000000 0.000000 0.000000 0.000000
0.063333 0.080488 0.000000 0.000000 0.000000 0.000000
0.190000 0.080488 -0.000000 0.000000 0.900000 0.000000
0.316667 0.080488 -0.000000 -0.000000 0.900000 0.000000
0.443333 0.080488 -0.000000 -0.000000 0.900000 0.000000
0.570000 0.080488 -0.000000 -0.000000 0.900000 0.000000
0.696667 0.080488 -0.000000 0.000000 0.900000 0.000000
0.823333 0.080488 -0.000000 0.000000 0.900000 0.000000
0.950000 0.080488 -0.000000 -0.000000 0.900000 0.000000
1.076667 0.080488 -0.000000 -0.000000 0.900000 0.000000
1.203333 0.080488 -0.000000 -0.000000 0.900000 0.000000
1.330000 0.080488 -0.000000 -0.000000 0.900000 0.000000
1.456667 0.080488 -0.000000 -0.000000 0.900000 0.000000
1.583333 0.080488 -0.000000 -0.000000 0.900000 0.000000
1.710000 0.080488 -0.000000 0.000000 0.900000 0.000000
1.836667 0.080488 -0.000000 0.000000 0.900000 0.000000
1.963333 0.080488 -0.000000 0.000000 0.900000 0.000000
2.090000 0.080488 -0.000000 -0.000000 0.900000 0.000000
2.216667 0.080488 -0.000000 -0.000000 0.900000 0.000000
2.343333 0.080488 -0.000000 -0.000000 0.900000 0.000000
2.470000 0.080488 -0.000000 -0.000000 0.900000 0.000000
2.596667 0.080488 -0.000000 -0.000000 0.900000 0.000000
2.723333 0.080488 -0.000000 -0.000000 0.900000 0.000000
2.850000 0.080488 -0.000000 -0.000000 0.900000 0.000000
2.976667 0.080488 -0.000000 -0.000000 0.900000 0.000000
3.103333 0.080488 -0.000000 -0.000000 0.900000 0.000000
3.230000 0.080488 -0.000000 -0.000000 0.900000 0.000000
3.356667 0.080488 0.000000 -0.000000 0.900000 0.000000
3.483333 0.080488 0.000000 -0.000000 0.900000 0.000000
3.610000 0.080488 0.000000 0.000000 0.900000 0.000000
3.736667 0.080488 0.000000 0.000000 0.000000 0.000000
0.063333 0.095122 0.000000 0.000000 0.000000 0.000000
0.190000 0.095122 -0.000000 0.000000 0.900000 0.000000
0.316667 0.095122 -0.000000 -0.000000 0.900000 0.000000
0.443333 0.095122 -0.000000 -0.000000 0.900000 0.000000
0.570000 0.095122 -0.000000 -0.000000 0.900000 0.000000
0.696667 0.095122 -0.000000 0.000000 0.900000 0.000000
0.823333 0.095122 -0.000000 0.000000 0.900000 0.000000
0.950000 0.095122 -0.000000 -0.000000 0.900000 0.000000
1.076667 0.095122 -0.000000 -0.000000 0.900000 0.000000
1.203333 0.095122 -0.000000 -0.000000 0.900000 0.000000
1.330000 0.095122 -0.000000 -0.000000 0.900000 0.000000
1.456667 0.095122 -0.000000 -0.000000 0.900000 0.000000
1.583333 0.095122 -0.000000 -0.000000 0.900000 0.000000
1.710000 0.095122 -0.000000 0.000000 0.900000 0.000000
1.836667 0.095122 -0.000000 0.000000 0.900000 0.000000
1.963333 0.095122 -0.000000 0.000000 0.900000 0.000000
2.090000 0.095122 -0.000000 -0.000000 0.900000 0.000000
2.216667 0.095122 -0.000000 -0.000000 0.900000 0.000000
2.343333 0.095122 -0.000000 -0.000000 0.900000 0.000000
2.470000 0.095122 -0.000000 -0.000000 0.900000 0.000000
2.596667 0.095122 -0.000000 -0.000000 0.900000 0.000000
2.723333 0.095122 -0.000000 -0.000000 0.900000 0.000000
2.850000 0.095122 -0.000000 -0.000000 0.900000 0.000000
2.976667 0.095122 -0.000000 -0.000000 0.900000 0.000000
3.103333 0.095122 -0.000000 -0.000000 0.900000 0.000000
3.230000 0.095122 -0.000000 -0.000000 0.900000 0.000000
3.356667 0.095122 0.000000 -0.000000 0.900000 0.000000
3.483333 0.095122 0.000000 -0.000000 0.900000 0.000000
3.610000 0.095122 0.000000 0.000000 0.900000 0.000000
3.736667 0.095122 0.000000 0.000000 0.000000 0.000000
0.063333 0.109756 0.000000 0.000000 0.000000 0.000000
0.190000 0.109756 -0.000000 0.000000 0.900000 0.000000
0.316667 0.109756 -0.000000 -0.000000 0.900000 0.000000
0.443333 0.109756 -0.000000 -0.000000 0.900000 0.000000
0.570000 0.109756 -0.000000 -0.000000 0.900000 0.000000
0.696667 0.109756 -0.000000 0.000000 0.900000 0.000000
0.823333 0.109756 -0.000000 0.000000 0.900000 0.000000
0.950000 0.109756 -0.000000 -0.000000 0.900000 0.000000
1.076667 0.109756 -0.000000 -0.000000 0.900000 0.000000
1.203333 0.109756 -0.000000 -0.000000 0.900000 0.000000
1.330000 0.109756 -0.000000 -0.000000 0.900000 0.000000
1.456667 0.109756 -0.000000 -0.000000 0.900000 0.000000
1.583333 0.109756 -0.000000 -0.000000 0.900000 0.000000
1.710000 0.109756 -0.000000 -0.000000 0.900000 0.000000
1.836667 0.109756 -0.000000 0.000000 0.900000 0.000000
1.963333 0.109756 -0.000000 0.000000 0.900000 0.000000
2.090000 0.109756 -0.000000 -0.000000 0.900000 0.000000
2.216667 0.109756 -0.000000 -0.000000 0.900000 0.000000
2.343333 0.109756 -0.000000 -0.000000 0.900000 0.000000
2.470000 0.109756 -0.000000 -0.000000 0.900000 0.000000
2.596667 0.109756 -0.000000 -0.000000 0.900000 0.000000
2.723333 0.109756 -0.000000 -0.000000 0.900000 0.000000
2.850000 0.109756 -0.000000 -0.000000 0.900000 0.000000
2.976667 0.109756 -0.000000 -0.000000 0.900000 0.000000
3.103333 0.109756 -0.000000 -0.000000 0.900000 0.000000
3.230000 0.109756 0.000000 -0.000000 0.900000 0.000000
3.356667 0.109756 0.000000 -0.000000 0.900000 0.000000
3.483333 0.109756 0.000000 -0.000000 0.900000 0.000000
3.610000 0.109756 0.000000 0.000000 0.900000 0.000000
3.736667 0.109756 0.000000 0.000000 0.000000 0.000000
0.063333 0.124390 0.000000 0.000000 0.000000 0.000000
0.190000 0.124390 -0.000000 0.000000 0.900000 0.000000
0.316667 0.124390 -0.000000 -0.000000 0.900000 0.000000
0.443333 0.124390 -0.000000 -0.000000 0.900000 0.000000
0.570000 0.124390 -0.000000 -0.000000 0.900000 0.000000
0.696667 0.124390 -0.000000 0.000000 0.900000 0.000000
0.823333 0.124390 -0.000000 -0.000000 0.900000 0.000000
0.950000 0.124390 -0.000000 -0.000000 0.900000 0.000000
1.076667 0.124390 -0.000000 -0.000000 0.900000 0.000000
1.203333 0.124390 -0.000000 -0.000000 0.900000 0.000000
1.330000 0.124390 -0.000000 -0.000000 0.900000 0.000000
1.456667 0.124390 -0.000000 -0.000000 0.900000 0.000000
1.583333 0.124390 -0.000000 -0.000000 0.900000 0.000000
1.710000 0.124390 -0.000000 -0.000000 0.900000 0.000000
1.836667 0.124390 -0.000000 0.000000 0.900000 0.000000
1.963333 0.124390 -0.000000 0.000000 0.900000 0.000000
2.090000 0.124390 -0.000000 -0.000000 0.900000 0.000000
2.216667 0.124390 -0.000000 -0.000000 0.900000 0.000000
2.343333 0.124390 -0.000000 -0.000000 0.900000 0.000000
2.470000 0.124390 -0.000000 -0.000000 0.900000 0.000000
2.596667 0.124390 -0.000000 -0.000000 0.900000 0.000000
2.723333 0.124390 -0.000000 -0.000000 0.900000 0.000000
2.850000 0.124390 -0.000000 -0.000000 0.900000 0.000000
2.976667 0.124390 -0.000000 -0.000000 0.900000 0.000000
3.103333 0.124390 0.000000 -0.000000 0.900000 0.000000
3.230000 0.124390 0.000000 -0.000000 0.900000 0.000000
3.356667 0.124390 0.000000 -0.000000 0.900000 0.000000
3.483333 0.124390 0.000000 -0.000000 0.900000 0.000000
3.610000 0.124390 0.000000 0.000000 0.900000 0.000000
3.736667 0.124390 0.000000 0.000000 0.000000 0.000000
0.063333 0.139024 0.000000 0.000000 0.000000 0.000000
0.190000 0.139024 -0.000000 0.000000 0.900000 0.000000
0.316667 0.139024 -0.000000 -0.000000 0.900000 0.000000
0.443333 0.139024 -0.000000 -0.000000 0.900000 0.000000
0.570000 0.139024 -0.000000 -0.000000 0.900000 0.000000
0.696667 0.139024 -0.000000 0.000000 0.900000 0.000000
0.823333 0.139024 -0.000000 -0.000000 0.900000 0.000000
0.950000 0.139024 -0.000000 -0.000000 0.900000 0.000000
1.076667 0.139024 -0.000000 -0.000000 0.900000 0.000000
1.203333 0.139024 -0.000000 -0.000000 0.900000 0.000000
1.330000 0.139024 -0.000000 -0.000000 0.900000 0.000000
1.456667 0.139024 -0.000000 -0.000000 0.900000 0.000000
1.583333 0.139024 -0.000000 -0.000000 0.900000 0.000000
1.710000 0.139024 -0.000000 -0.000000 0.900000 0.000000
1.836667 0.139024 -0.000000 0.000000 0.900000 0.000000
1.963333 0.139024 -0.000000 0.000000 0.900000 0.000000
2.090000 0.139024 -0.000000 -0.000000 0.900000 0.000000
2.216667 0.139024 -0.000000 -0.000000 0.900000 0.000000
2.343333 0.139024 -0.000000 -0.000000 0.900000 0.000000
2.470000 0.139024 -0.000000 -0.000000 0.900000 0.000000
2.596667 0.139024 -0.000000 -0.000000 0.900000 0.000000
2.723333 0.139024 -0.000000 -0.000000 0.900000 0.000000
2.850000 0.139024 -0.000000 -0.000000 0.900000 0.000000
2.976667 0.139024 -0.000000 -0.000000 0.900000 0.000000
3.103333 0.139024 0.000000 -0.000000 0.900000 0.000000
3.230000 0.139024 0.000000 -0.000000 0.900000 0.000000
3.356667 0.139024 0.000000 -0.000000 0.900000 0.000000
3.483333 0.139024 0.000000 -0.000000 0.900000 0.000000
3.610000 0.139024 0.000000 0.000000 0.900000 0.000000
3.736667 0.139024 0.000000 0.000000 0.000000 0.000000
0.063333 0.153659 0.000000 0.000000 0.000000 0.000000
0.190000 0.153659 -0.000000 0.000000 0.900000 0.000000
0.316667 0.153659 -0.000000 -0.000000 0.900000 0.000000
0.443333 0.153659 -0.000000 -0.000000 0.900000 0.000000
0.570000 0.153659 -0.000000 -0.000000 0.900000 0.000000
0.696667 0.153659 -0.000000 0.000000 0.900000 0.000000
0.823333 0.153659 -0.000000 -0.000000 0.900000 0.000000
0.950000 0.153659 -0.000000 -0.000000 0.900000 0.000000
1.076667 0.153659 -0.000000 -0.000000 0.900000 0.000000
1.203333 0.153659 -0.000000 -0.000000 0.900000 0.000000
1.330000 0.153659 -0.000000 -0.000000 0.900000 0.000000
1.456667 0.153659 -0.000000 -0.000000 0.900000 0.000000
1.583333 0.153659 -0.000000 -0.000000 0.900000 0.000000
1.710000 0.153659 -0.000000 -0.000000 0.900000 0.000000
1.836667 0.153659 -0.000000 0.000000 0.900000 0.000000
1.963333 0.153659 -0.000000 0.000000 0.900000 0.000000
2.090000 0.153659 -0.000000 -0.000000 0.900000 0.000000
2.216667 0.153659 -0.000000 -0.000000 0.900000 0.000000
2.343333 0.153659 -0.000000 -0.000000 0.900000 0.000000
2.470000 0.153659 -0.000000 -0.000000 0.900000 0.000000
2.596667 0.153659 -0.000000 -0.000000 0.900000 0.000000
2.723333 0.153659 -0.000000 -0.000000 0.900000 0.000000
2.850000 0.153659 -0.000000 -0.000000 0.900000 0.000000
2.976667 0.153659 -0.000000 -0.000000 0.900000 0.000000
3.103333 0.153659 0.000000 -0.000000 0.900000 0.000000
3.230000 0.153659 0.000000 -0.000000 0.900000 0.000000
3.356667 0.153659 0.000000 -0.000000 0.900000 0.000000
3.483333 0.153659 0.000000 -0.000000 0.900000 0.000000
3.610000 0.153659 0.000000 0.000000 0.900000 0.000000
3.736667 0.153659 0.000000 0.000000 0.000000 0.000000
0.063333 0.168293 0.000000 0.000000 0.000000 0.000000
0.190000 0.168293 -0.000000 0.000000 0.900000 0.000000
0.316667 0.168293 -0.000000 -0.000000 0.900000 0.000000
0.443333 0.168293 -0.000000 -0.000000 0.900000 0.000000
0.570000 0.168293 -0.000000 -0.000000 0.900000 0.000000
0.696667 0.168293 -0.000000 0.000000 0.900000 0.000000
0.823333 0.168293 -0.000000 -0.000000 0.900000 0.000000
0.950000 0.168293 -0.000000 -0.000000 0.900000 0.000000
1.076667 0.168293 -0.000000 -0.000000 0.899999 0.000000
1.203333 0.168293 -0.000000 -0.000000 0.900000 0.000000
1.330000 0.168293 -0.000000 -0.000000 0.900000 0.000000
1.456667 0.168293 -0.000000 -0.000000 0.900000 0.000000
1.583333 0.168293 -0.000000 -0.000000 0.900000 0.000000
1.710000 0.168293 -0.000000 -0.000000 0.900000 0.000000
1.836667 0.168293 -0.000000 0.000000 0.900000 0.000000
1.963333 0.168293 -0.000000 0.000000 0.900000 0.000000
2.090000 0.168293 -0.000000 -0.000000 0.900000 0.000000
2.216667 0.168293 -0.000000 -0.000000 0.900000 0.000000
2.343333 0.168293 -0.000000 -0.000000 0.900000 0.000000
2.470000 0.168293 -0.000000 -0.000000 0.900000 0.000000
2.596667 0.168293 -0.000000 -0.000000 0.900000 0.000000
2.723333 0.168293 -0.000000 -0.000000 0.900000 0.000000
2.850000 0.168293 -0.000000 -0.000000 0.900000 0.000000
2.976667 0.168293 0.000000 -0.000000 0.900000 0.000000
3.103333 0.168293 0.000000 -0.000000 0.900000 0.000000
3.230000 0.168293 0.000000 -0.000000 0.900000 0.000000
3.356667 0.168293 0.000000 -0.000000 0.900000 0.000000
3.483333 0.168293 0.000000 -0.000000 0.900000 0.000000
3.610000 0.168293 0.000000 0.000000 0.900000 0.000000
3.736667 0.168293 0.000000 0.000000 0.000000 0.000000
0.063333 0.182927 0.000000 0.000000 0.000000 0.000000
0.190000 0.182927 -0.000000 0.000000 0.900000 0.000000
0.316667 0.182927 -0.000000 -0.000000 0.900000 0.000000
0.443333 0.182927 -0.000000 -0.000000 0.899998 0.000000
0.570000 0.182927 -0.000000 -0.000000 0.899997 0.000000
0.696667 0.182927 -0.000000 -0.000000 0.899996 0.000000
0.823333 0.182927 -0.000000 -0.000000 0.899990 0.000000
0.950000 0.182927 -0.000001 -0.000000 0.899982 0.000001
1.076667 0.182927 -0.000001 -0.000000 0.899976 0.000001
1.203333 0.182927 -0.000001 -0.000000 0.899981 0.000001
1.330000 0.182927 -0.000000 -0.000000 0.899991 0.000000
1.456667 0.182927 -0.000000 -0.000000 0.899995 0.000000
1.583333 0.182927 -0.000000 -0.000000 0.899997 0.000000
1.710000 0.182927 -0.000000 -0.000000 0.900000 0.000000
1.836667 0.182927 -0.000000 0.000000 0.900000 0.000000
1.963333 0.182927 -0.000000 0.000000 0.900000 0.000000
2.090000 0.182927 -0.000000 -0.000000 0.899998 0.000000
2.216667 0.182927 -0.000000 -0.000000 0.899989 0.000000
2.343333 0.182927 -0.000000 -0.000000 0.899987 0.000000
2.470000 0.182927 -0.000000 -0.000000 0.899990 0.000000
2.596667 0.182927 -0.000000 -0.000000 0.899991 0.000000
2.723333 0.182927 -0.000000 -0.000000 0.899989 0.000000
2.850000 0.182927 -0.000000 -0.000000 0.899983 0.000000
2.976667 0.182927 0.000000 -0.000000 0.899980 0.000000
3.103333 0.182927 0.000000 -0.000000 0.899977 0.000000
3.230000 0.182927 0.000000 -0.000000 0.899981 0.000000
3.356667 0.182927 0.000000 -0.000000 0.899991 0.000000
3.483333 0.182927 0.000000 -0.000000 0.899997 0.000000
3.610000 0.182927 0.000000 0.000000 0.900000 0.000000
3.736667 0.182927 0.000000 0.000000 0.000000 0.000000
0.063333 0.197561 0.000000 0.000000 0.000000 0.000000
0.190000 0.197561 -0.000000 0.000000 0.900000 0.000000
0.316667 0.197561 -0.000000 -0.000000 0.899977 0.000000
0.443333 0.197561 -0.000004 -0.000000 0.899856 0.000004
0.570000 0.197561 -0.000007 -0.000000 0.899823 0.000007
0.696667 0.197561 -0.000010 -0.000000 0.899762 0.000010
0.823333 0.197561 -0.000019 -0.000001 0.899576 0.000019
0.950000 0.197561 -0.000028 -0.000002 0.899389 0.000028
1.076667 0.197561 -0.000035 -0.000004 0.899245 0.000035
1.203333 0.197561 -0.000028 -0.000003 0.899385 0.000028
1.330000 0.197561 -0.000015 -0.000002 0.899655 0.000015
1.456667 0.197561 -0.000010 -0.000001 0.899758 0.000010
1.583333 0.197561 -0.000006 -0.000001 0.899833 0.000006
1.710000 0.197561 -0.000001 -0.000000 0.899971 0.000001
1.836667 0.197561 -0.000000 0.000000 0.900000 0.000000
1.963333 0.197561 -0.000000 0.000000 0.899999 0.000000
2.090000 0.197561 -0.000003 -0.000000 0.899880 0.000003
2.216667 0.197561 -0.000009 -0.000002 0.899560 0.000009
2.343333 0.197561 -0.000008 -0.000002 0.899506 0.000008
2.470000 0.197561 -0.000005 -0.000002 0.899593 0.000005
2.596667 0.197561 -0.000004 -0.000001 0.899625 0.000004
2.723333 0.197561 -0.000003 -0.000001 0.899527 0.000003
2.850000 0.197561 -0.000002 -0.000002 0.899325 0.000003
2.976667 0.197561 0.000002 -0.000003 0.899182 0.000003
3.103333 0.197561 0.000006 -0.000004 0.899128 0.000007
3.230000 0.197561 0.000005 -0.000004 0.899290 0.000006
3.356667 0.197561 0.000004 -0.000002 0.899383 0.000004
3.483333 0.197561 0.000003 -0.000000 0.899594 0.000003
3.610000 0.197561 0.000000 0.000000 0.899945 0.000000
3.736667 0.197561 0.000000 0.000000 0.000000 0.000000
0.063333 0.212195 0.000000 0.000000 0.000000 0.000000
0.190000 0.212195 -0.000000 0.000000 0.899950 0.000000
0.316667 0.212195 -0.000073 -0.000004 0.896709 0.000073
0.443333 0.212195 -0.000254 -0.000028 0.891814 0.000256
0.570000 0.212195 -0.000318 -0.000020 0.891896 0.000319
0.696667 0.212195 -0.000426 -0.000015 0.890374 0.000426
0.823333 0.212195 -0.000588 -0.000036 0.887012 0.000589
0.950000 0.212195 -0.000693 -0.000068 0.884938 0.000696
1.076667 0.212195 -0.000750 -0.000098 0.883443 0.000757
1.203333 0.212195 -0.000623 -0.000085 0.885530 0.000629
1.330000 0.212195 -0.000409 -0.000050 0.890094 0.000412
1.456667 0.212195 -0.000316 -0.000035 0.892031 0.000318
1.583333 0.212195 -0.000236 -0.000021 0.893571 0.000237
1.710000 0.212195 -0.000083 -0.000001 0.897531 0.000083
1.836667 0.212195 -0.000000 0.000000 0.899998 0.000000
1.963333 0.212195 -0.000003 0.000000 0.899881 0.000003
2.090000 0.212195 -0.000152 -0.000017 0.893667 0.000153
2.216667 0.212195 -0.000257 -0.000067 0.886986 0.000266
2.343333 0.212195 -0.000210 -0.000069 0.886362 0.000222
2.470000 0.212195 -0.000146 -0.000048 0.887663 0.000154
2.596667 0.212195 -0.000106 -0.000039 0.888398 0.000112
2.723333 0.212195 -0.000093 -0.000041 0.885783 0.000102
2.850000 0.212195 -0.000048 -0.000061 0.881434 0.000077
2.976667 0.212195 0.000076 -0.000086 0.878437 0.000114
3.103333 0.212195 0.000181 -0.000109 0.877965 0.000211
3.230000 0.212195 0.000105 -0.000083 0.881154 0.000134
3.356667 0.212195 0.000022 -0.000062 0.877133 0.000066
3.483333 0.212195 -0.000023 -0.000023 0.868465 0.000032
3.610000 0.212195 -0.000034 0.000186 0.856409 0.000190
3.736667 0.212195 0.000000 0.000000 0.000000 0.000000
0.063333 0.226829 0.000000 0.000000 0.000000 0.000000
0.190000 0.226829 -0.001142 0.001071 0.667017 0.001566
0.316667 0.226829 -0.003538 -0.000235 0.667220 0.003546
0.443333 0.226829 -0.005937 -0.000698 0.679470 0.005978
0.570000 0.226829 -0.008093 -0.000550 0.684572 0.008112
0.696667 0.226829 -0.008893 -0.000533 0.689170 0.008909
0.823333 0.226829 -0.008742 -0.000745 0.693557 0.008774
0.950000 0.226829 -0.008534 -0.001038 0.698304 0.008597
1.076667 0.226829 -0.008274 -0.001302 0.702628 0.008376
1.203333 0.226829 -0.007963 -0.001243 0.704033 0.008060
1.330000 0.226829 -0.007688 -0.001034 0.702573 0.007757
1.456667 0.226829 -0.007225 -0.000920 0.699534 0.007283
1.583333 0.226829 -0.006288 -0.000738 0.695287 0.006332
1.710000 0.226829 -0.004971 -0.000157 0.693131 0.004974
1.836667 0.226829 -0.003824 0.000672 0.698031 0.003883
1.963333 0.226829 -0.003366 0.000497 0.691335 0.003402
2.090000 0.226829 -0.002498 -0.000676 0.672751 0.002588
2.216667 0.226829 -0.000797 -0.001324 0.665112 0.001545
2.343333 0.226829 0.000522 -0.001337 0.656768 0.001435
2.470000 0.226829 0.001536 -0.001060 0.646249 0.001866
2.596667 0.226829 0.002398 -0.000912 0.635948 0.002566
2.723333 0.226829 0.003020 -0.000869 0.627507 0.003143
2.850000 0.226829 0.003661 -0.001076 0.621369 0.003816
2.976667 0.226829 0.004517 -0.001360 0.615518 0.004718
3.103333 0.226829 0.005049 -0.001528 0.607814 0.005275
3.230000 0.226829 0.003406 -0.000991 0.600241 0.003547
3.356667 0.226829 0.000578 -0.000680 0.600016 0.000892
3.483333 0.226829 -0.001013 -0.000165 0.600096 0.001027
3.610000 0.226829 -0.000716 0.001067 0.612967 0.001285
3.736667 0.226829 0.000000 0.000000 0.000000 0.000000
0.063333 0.241463 0.000000 0.000000 0.000000 0.000000
0.190000 0.241463 -0.000487 0.001303 0.605110 0.001391
0.316667 0.241463 -0.002476 -0.000194 0.600440 0.002484
0.443333 0.241463 -0.006588 -0.000642 0.600377 0.006619
0.570000 0.241463 -0.010401 -0.000766 0.600061 0.010430
0.696667 0.241463 -0.011668 -0.001024 0.600085 0.011713
0.823333 0.241463 -0.011712 -0.001344 0.600094 0.011789
0.950000 0.241463 -0.011713 -0.001747 0.600095 0.011842
1.076667 0.241463 -0.011920 -0.002135 0.600104 0.012110
1.203333 0.241463 -0.012088 -0.002039 0.600203 0.012259
1.330000 0.241463 -0.011748 -0.001703 0.600542 0.011871
1.456667 0.241463 -0.010776 -0.001545 0.600819 0.010886
1.583333 0.241463 -0.009026 -0.001310 0.600805 0.009121
1.710000 0.241463 -0.006428 -0.000418 0.601186 0.006442
1.836667 0.241463 -0.004628 0.001084 0.605482 0.004753
1.963333 0.241463 -0.004515 0.000859 0.604672 0.004596
2.090000 0.241463 -0.003053 -0.001208 0.600288 0.003283
2.216667 0.241463 -0.000590 -0.001946 0.600177 0.002034
2.343333 0.241463 0.000454 -0.001867 0.600056 0.001922
2.470000 0.241463 0.001113 -0.001477 0.600000 0.001850
2.596667 0.241463 0.001880 -0.001228 0.600000 0.002245
2.723333 0.241463 0.002550 -0.001170 0.600000 0.002806
2.850000 0.241463 0.003086 -0.001392 0.600000 0.003385
2.976667 0.241463 0.003486 -0.001674 0.600000 0.003867
3.103333 0.241463 0.003609 -0.001692 0.600000 0.003985
3.230000 0.241463 0.002625 -0.000745 0.600000 0.002728
3.356667 0.241463 0.000699 -0.000478 0.600000 0.000847
3.483333 0.241463 -0.000415 -0.000151 0.600000 0.000441
3.610000 0.241463 -0.000265 0.000927 0.600281 0.000964
3.736667 0.241463 0.000000 0.000000 0.000000 0.000000
0.063333 0.256098 0.000000 0.000000 0.000000 0.000000
0.190000 0.256098 -0.000750 0.001203 0.600205 0.001418
0.316667 0.256098 -0.002858 -0.000099 0.600002 0.002859
0.443333 0.256098 -0.006777 -0.000254 0.600002 0.006782
0.570000 0.256098 -0.010388 -0.000807 0.600001 0.010419
0.696667 0.256098 -0.011539 -0.001308 0.600002 0.011613
0.823333 0.256098 -0.011640 -0.001629 0.600003 0.011753
0.950000 0.256098 -0.011702 -0.001979 0.600003 0.011868
1.076667 0.256098 -0.011902 -0.002299 0.600003 0.012122
1.203333 0.256098 -0.012011 -0.002208 0.600003 0.012213
1.330000 0.256098 -0.011681 -0.001917 0.600004 0.011837
1.456667 0.256098 -0.010798 -0.001792 0.600005 0.010946
1.583333 0.256098 -0.009149 -0.001620 0.600004 0.009291
1.710000 0.256098 -0.006555 -0.000712 0.600008 0.006594
1.836667 0.256098 -0.004735 0.001246 0.600170 0.004896
1.963333 0.256098 -0.004602 0.001098 0.600142 0.004731
2.090000 0.256098 -0.003014 -0.001637 0.600001 0.003430
2.216667 0.256098 -0.000503 -0.002219 0.600000 0.002275
2.343333 0.256098 0.000518 -0.002093 0.600000 0.002156
2.470000 0.256098 0.001152 -0.001730 0.600000 0.002079
2.596667 0.256098 0.001867 -0.001477 0.600000 0.002381
2.723333 0.256098 0.002498 -0.001426 0.600000 0.002876
2.850000 0.256098 0.002990 -0.001626 0.600000 0.003403
2.976667 0.256098 0.003362 -0.001873 0.600000 0.003848
3.103333 0.256098 0.003509 -0.001799 0.600000 0.003943
3.230000 0.256098 0.002611 -0.000598 0.600000 0.002679
3.356667 0.256098 0.000823 -0.000298 0.600000 0.000875
3.483333 0.256098 -0.000211 -0.000179 0.600000 0.000277
3.610000 0.256098 -0.000167 0.000811 0.600004 0.000828