TITLE="(Vx,Vy)"
VARIABLES=X,Y,Vx,Vy,Vm,V
ZONE T="T-Dummy" I=30, J=41, F=POINT
0.063333 0.007317 0.000000 0.000000 0.000000 0.000000
0.190000 0.007317 0.000000 0.000000 0.000000 0.000000
0.316667 0.007317 0.000000 0.000000 0.000000 0.000000
0.443333 0.007317 0.000000 0.000000 0.000000 0.000000
0.570000 0.007317 0.000000 0.000000 0.000000 0.000000
0.696667 0.007317 0.000000 0.000000 0.000000 0.000000
0.823333 0.007317 0.000000 0.000000 0.000000 0.000000
0.950000 0.007317 0.000000 0.000000 0.000000 0.000000
1.076667 0.007317 0.000000 0.000000 0.000000 0.000000
1.203333 0.007317 0.000000 0.000000 0.000000 0.000000
1.330000 0.007317 0.000000 0.000000 0.000000 0.000000
1.456667 0.007317 0.000000 0.000000 0.000000 0.000000
1.583333 0.007317 0.000000 0.000000 0.000000 0.000000
1.710000 0.007317 0.000000 0.000000 0.000000 0.000000
1.836667 0.007317 0.000000 0.000000 0.000000 0.000000
1.963333 0.007317 0.000000 0.000000 0.000000 0.000000
2.090000 0.007317 0.000000 0.000000 0.000000 0.000000
2.216667 0.007317 0.000000 0.000000 0.000000 0.000000
2.343333 0.007317 0.000000 0.000000 0.000000 0.000000
2.470000 0.007317 0.000000 0.000000 0.000000 0.000000
2.596667 0.007317 0.000000 0.000000 0.000000 0.000000
2.723333 0.007317 0.000000 0.000000 0.000000 0.000000
2.850000 0.007317 0.000000 0.000000 0.000000 0.000000
2.976667 0.007317 0.000000 0.000000 0.000000 0.000000
3.103333 0.007317 0.000000 0.000000 0.000000 0.000000
3.230000 0.007317 0.000000 0.000000 0.000000 0.000000
3.356667 0.007317 0.000000 0.000000 0.000000 0.000000
3.483333 0.007317 0.000000 0.000000 0.000000 0.000000
3.610000 0.007317 0.000000 0.000000 0.000000 0.000000
3.736667 0.007317 0.000000 0.000000 0.000000 0.000000
0.063333 0.021951 0.000000 0.000000 0.000000 0.000000
0.190000 0.021951 -0.000000 0.000000 0.900000 0.000000
0.316667 0.021951 -0.000000 -0.000000 0.900000 0.000000
0.443333 0.021951 -0.000000 -0.000000 0.900000 0.000000
0.570000 0.021951 -0.000000 0.000000 0.900000 0.000000
0.696667 0.021951 -0.000000 -0.000000 0.900000 0.000000
0.823333 0.021951 -0.000000 -0.000000 0.900000 0.000000
0.950000 0.021951 -0.000000 -0.000000 0.900000 0.000000
1.076667 0.021951 -0.000000 -0.000000 0.900000 0.000000
1.203333 0.021951 -0.000000 -0.000000 0.900000 0.000000
1.330000 0.021951 -0.000000 -0.000000 0.900000 0.000000
1.456667 0.021951 -0.000000 -0.000000 0.900000 0.000000
1.583333 0.021951 0.000000 -0.000000 0.900000 0.000000
1.710000 0.021951 -0.000000 -0.000000 0.900000 0.000000
1.836667 0.021951 -0.000000 0.000000 0.900000 0.000000
1.963333 0.021951 -0.000000 0.000000 0.900000 0.000000
2.090000 0.021951 -0.000000 -0.000000 0.900000 0.000000
2.216667 0.021951 -0.000000 -0.000000 0.900000 0.000000
2.343333 0.021951 -0.000000 -0.000000 0.900000 0.000000
2.470000 0.021951 -0.000000 -0.000000 0.900000 0.000000
2.596667 0.021951 -0.000000 -0.000000 0.900000 0.000000
2.723333 0.021951 -0.000000 -0.000000 0.900000 0.000000
2.850000 0.021951 -0.000000 -0.000000 0.900000 0.000000
2.976667 0.021951 0.000000 -0.000000 0.900000 0.000000
3.103333 0.021951 0.000000 -0.000000 0.900000 0.000000
3.230000 0.021951 0.000000 -0.000000 0.900000 0.000000
3.356667 0.021951 0.000000 -0.000000 0.900000 0.000000
3.483333 0.021951 0.000000 0.000000 0.900000 0.000000
3.610000 0.021951 0.000000 0.000000 0.900000 0.000000
3.736667 0.021951 0.000000 0.000000 0.000000 0.000000
0.063333 0.036585 0.000000 0.000000 0.000000 0.000000
0.190000 0.036585 -0.000000 0.000000 0.900000 0.000000
0.316667 0.036585 -0.000000 -0.000000 0.900000 0.000000
0.443333 0.036585 -0.000000 -0.000000 0.900000 0.000000
0.570000 0.036585 -0.000000 -0.000000 0.900000 0.000000
0.696667 0.036585 -0.000000 -0.000000 0.900000 0.000000
0.823333 0.036585 -0.000000 -0.000000 0.900000 0.000000
0.950000 0.036585 -0.000000 -0.000000 0.900000 0.000000
1.076667 0.036585 -0.000000 -0.000000 0.900000 0.000000
1.203333 0.036585 -0.000000 -0.000000 0.900000 0.000000
1.330000 0.036585 -0.000000 -0.000000 0.900000 0.000000
1.456667 0.036585 -0.000000 -0.000000 0.900000 0.000000
1.583333 0.036585 -0.000000 -0.000000 0.900000 0.000000
1.710000 0.036585 -0.000000 -0.000000 0.900000 0.000000
1.836667 0.036585 -0.000000 0.000000 0.900000 0.000000
1.963333 0.036585 -0.000000 0.000000 0.900000 0.000000
2.090000 0.036585 -0.000000 -0.000000 0.900000 0.000000
2.216667 0.036585 -0.000000 -0.000000 0.900000 0.000000
2.343333 0.036585 -0.000000 -0.000000 0.900000 0.000000
2.470000 0.036585 -0.000000 -0.000000 0.900000 0.000000
2.596667 0.036585 -0.000000 -0.000000 0.900000 0.000000
2.723333 0.036585 -0.000000 -0.000000 0.900000 0.000000
2.850000 0.036585 -0.000000 -0.000000 0.900000 0.000000
2.976667 0.036585 -0.000000 -0.000000 0.900000 0.000000
3.103333 0.036585 -0.000000 -0.000000 0.900000 0.000000
3.230000 0.036585 -0.000000 -0.000000 0.900000 0.000000
3.356667 0.036585 0.000000 -0.000000 0.900000 0.000000
3.483333 0.036585 0.000000 0.000000 0.900000 0.000000
3.610000 0.036585 0.000000 0.000000 0.900000 0.000000
3.736667 0.036585 0.000000 0.000000 0.000000 0.000000
0.063333 0.051220 0.000000 0.000000 0.000000 0.000000
0.190000 0.051220 -0.000000 0.000000 0.900000 0.000000
0.316667 0.051220 -0.000000 -0.000000 0.900000 0.000000
0.443333 0.051220 -0.000000 -0.000000 0.900000 0.000000
0.570000 0.051220 -0.000000 -0.000000 0.900000 0.000000
0.696667 0.051220 -0.000000 -0.000000 0.900000 0.000000
0.823333 0.051220 -0.000000 -0.000000 0.900000 0.000000
0.950000 0.051220 -0.000000 -0.000000 0.900000 0.000000
1.076667 0.051220 -0.000000 -0.000000 0.900000 0.000000
1.203333 0.051220 -0.000000 -0.000000 0.900000 0.000000
1.330000 0.051220 -0.000000 -0.000000 0.900000 0.000000
1.456667 0.051220 -0.000000 -0.000000 0.900000 0.000000
1.583333 0.051220 -0.000000 -0.000000 0.900000 0.000000
1.710000 0.051220 -0.000000 -0.000000 0.900000 0.000000
1.836667 0.051220 -0.000000 0.000000 0.900000 0.000000
1.963333 0.051220 -0.000000 0.000000 0.900000 0.000000
2.090000 0.051220 -0.000000 -0.000000 0.900000 0.000000
2.216667 0.051220 -0.000000 -0.000000 0.900000 0.000000
2.343333 0.051220 -0.000000 -0.000000 0.900000 0.000000
2.470000 0.051220 -0.000000 -0.000000 0.900000 0.000000
2.596667 0.051220 -0.000000 -0.000000 0.900000 0.000000
2.723333 0.051220 -0.000000 -0.000000 0.900000 0.000000
2.850000 0.051220 -0.000000 -0.000000 0.900000 0.000000
2.976667 0.051220 -0.000000 -0.000000 0.900000 0.000000
3.103333 0.051220 -0.000000 -0.000000 0.900000 0.000000
3.230000 0.051220 -0.000000 -0.000000 0.900000 0.000000
3.356667 0.051220 0.000000 -0.000000 0.900000 0.000000
3.483333 0.051220 0.000000 -0.000000 0.900000 0.000000
3.610000 0.051220 0.000000 0.000000 0.900000 0.000000
3.736667 0.051220 0.000000 0.000000 0.000000 0.000000
0.063333 0.065854 0.000000 0.000000 0.000000 0.000000
0.190000 0.065854 -0.000000 0.000000 0.900000 0.000000
0.316667 0.065854 -0.000000 -0.000000 0.900000 0.000000
0.443333 0.065854 -0.000000 -0.000000 0.900000 0.000000
0.570000 0.065854 -0.000000 -0.000000 0.900000 0.000000
0.696667 0.065854 -0.000000 -0.000000 0.900000 0.000000
0.823333 0.065854 -0.000000 -0.000000 0.900000 0.000000
0.950000 0.065854 -0.000000 -0.000000 0.900000 0.000000
1.076667 0.065854 -0.000000 -0.000000 0.900000 0.000000
1.203333 0.065854 -0.000000 -0.000000 0.900000 0.000000
1.330000 0.065854 -0.000000 -0.000000 0.900000 0.000000
1.456667 0.065854 -0.000000 -0.000000 0.900000 0.000000
1.583333 0.065854 -0.000000 -0.000000 0.900000 0.000000
1.710000 0.065854 -0.000000 -0.000000 0.900000 0.000000
1.836667 0.065854 -0.000000 0.000000 0.900000 0.000000
1.963333 0.065854 -0.000000 0.000000 0.900000 0.000000
2.090000 0.065854 -0.000000 -0.000000 0.900000 0.000000
2.216667 0.065854 -0.000000 -0.000000 0.900000 0.000000
2.343333 0.065854 -0.000000 -0.000000 0.900000 0.000000
2.470000 0.065854 -0.000000 -0.000000 0.900000 0.000000
2.596667 0.065854 -0.000000 -0.000000 0.900000 0.000000
2.723333 0.065854 -0.000000 -0.000000 0.900000 0.000000
2.850000 0.065854 -0.000000 -0.000000 0.900000 0.000000
2.976667 0.065854 -0.000000 -0.000000 0.900000 0.000000
3.103333 0.065854 -0.000000 -0.000000 0.900000 0.000000
3.230000 0.065854 -0.000000 -0.000000 0.900000 0.000000
3.356667 0.065854 0.000000 -0.000000 0.900000 0.000000
3.483333 0.065854 0.000000 -0.000000 0.900000 0.000000
3.610000 0.065854 0.000000 0.000000 0.900000 0.000000
3.736667 0.065854 0.000000 0.000000 0.000000 0.000000
0.063333 0.080488 0.000000 0.000000 0.000000 0.000000
0.190000 0.080488 -0.000000 0.000000 0.900000 0.000000
0.316667 0.080488 -0.000000 -0.000000 0.900000 0.000000
0.443333 0.080488 -0.000000 -0.000000 0.900000 0.000000
0.570000 0.080488 -0.000000 -0.000000 0.900000 0.000000
0.696667 0.080488 -0.000000 -0.000000 0.900000 0.000000
0.823333 0.080488 -0.000000 -0.000000 0.900000 0.000000
0.950000 0.080488 -0.000000 -0.000000 0.900000 0.000000
1.076667 0.080488 -0.000000 -0.000000 0.900000 0.000000
1.203333 0.080488 -0.000000 -0.000000 0.900000 0.000000
1.330000 0.080488 -0.000000 -0.000000 0.900000 0.000000
1.456667 0.080488 -0.000000 -0.000000 0.900000 0.000000
1.583333 0.080488 -0.000000 -0.000000 0.900000 0.000000
1.710000 0.080488 -0.000000 -0.000000 0.900000 0.000000
1.836667 0.080488 -0.000000 0.000000 0.900000 0.000000
1.963333 0.080488 -0.000000 0.000000 0.900000 0.000000
2.090000 0.080488 -0.000000 -0.000000 0.900000 0.000000
2.216667 0.080488 -0.000000 -0.000000 0.900000 0.000000
2.343333 0.080488 -0.000000 -0.000000 0.900000 0.000000
2.470000 0.080488 -0.000000 -0.000000 0.900000 0.000000
2.596667 0.080488 -0.000000 -0.000000 0.900000 0.000000
2.723333 0.080488 -0.000000 -0.000000 0.900000 0.000000
2.850000 0.080488 -0.000000 -0.000000 0.900000 0.000000
2.976667 0.080488 -0.000000 -0.000000 0.900000 0.000000
3.103333 0.080488 -0.000000 -0.000000 0.900000 0.000000
3.230000 0.080488 0.000000 -0.000000 0.900000 0.000000
3.356667 0.080488 0.000000 -0.000000 0.900000 0.000000
3.483333 0.080488 0.000000 -0.000000 0.900000 0.000000
3.610000 0.080488 0.000000 0.000000 0.900000 0.000000
3.736667 0.080488 0.000000 0.000000 0.000000 0.000000
0.063333 0.095122 0.000000 0.000000 0.000000 0.000000
0.190000 0.095122 -0.000000 0.000000 0.900000 0.000000
0.316667 0.095122 -0.000000 -0.000000 0.900000 0.000000
0.443333 0.095122 -0.000000 -0.000000 0.900000 0.000000
0.570000 0.095122 -0.000000 -0.000000 0.900000 0.000000
0.696667 0.095122 -0.000000 -0.000000 0.900000 0.000000
0.823333 0.095122 -0.000000 -0.000000 0.900000 0.000000
0.950000 0.095122 -0.000000 -0.000000 0.900000 0.000000
1.076667 0.095122 -0.000000 -0.000000 0.900000 0.000000
1.203333 0.095122 -0.000000 -0.000000 0.900000 0.000000
1.330000 0.095122 -0.000000 -0.000000 0.900000 0.000000
1.456667 0.095122 -0.000000 -0.000000 0.900000 0.000000
1.583333 0.095122 -0.000000 -0.000000 0.900000 0.000000
1.710000 0.095122 -0.000000 -0.000000 0.900000 0.000000
1.836667 0.095122 -0.000000 0.000000 0.900000 0.000000
1.963333 0.095122 -0.000000 0.000000 0.900000 0.000000
2.090000 0.095122 -0.000000 -0.000000 0.900000 0.000000
2.216667 0.095122 -0.000000 -0.000000 0.900000 0.000000
2.343333 0.095122 -0.000000 -0.000000 0.900000 0.000000
2.470000 0.095122 -0.000000 -0.000000 0.900000 0.000000
2.596667 0.095122 -0.000000 -0.000000 0.900000 0.000000
2.723333 0.095122 -0.000000 -0.000000 0.900000 0.000000
2.850000 0.095122 -0.000000 -0.000000 0.900000 0.000000
2.976667 0.095122 -0.000000 -0.000000 0.900000 0.000000
3.103333 0.095122 -0.000000 -0.000000 0.900000 0.000000
3.230000 0.095122 0.000000 -0.000000 0.900000 0.000000
3.356667 0.095122 0.000000 -0.000000 0.900000 0.000000
3.483333 0.095122 0.000000 -0.000000 0.900000 0.000000
3.610000 0.095122 0.000000 0.000000 0.900000 0.000000
3.736667 0.095122 0.000000 0.000000 0.000000 0.000000
0.063333 0.109756 0.000000 0.000000 0.000000 0.000000
0.190000 0.109756 -0.000000 0.000000 0.900000 0.000000
0.316667 0.109756 -0.000000 -0.000000 0.900000 0.000000
0.443333 0.109756 -0.000000 -0.000000 0.900000 0.000000
0.570000 0.109756 -0.000000 -0.000000 0.900000 0.000000
0.696667 0.109756 -0.000000 -0.000000 0.900000 0.000000
0.823333 0.109756 -0.000000 -0.000000 0.900000 0.000000
0.950000 0.109756 -0.000000 -0.000000 0.900000 0.000000
1.076667 0.109756 -0.000000 -0.000000 0.900000 0.000000
1.203333 0.109756 -0.000000 -0.000000 0.900000 0.000000
1.330000 0.109756 -0.000000 -0.000000 0.900000 0.000000
1.456667 0.109756 -0.000000 -0.000000 0.900000 0.000000
1.583333 0.109756 -0.000000 -0.000000 0.900000 0.000000
1.710000 0.109756 -0.000000 -0.000000 0.900000 0.000000
1.836667 0.109756 -0.000000 0.000000 0.900000 0.000000
1.963333 0.109756 -0.000000 0.000000 0.900000 0.000000
2.090000 0.109756 -0.000000 -0.000000 0.900000 0.000000
2.216667 0.109756 -0.000000 -0.000000 0.900000 0.000000
2.343333 0.109756 -0.000000 -0.000000 0.900000 0.000000
2.470000 0.109756 -0.000000 -0.000000 0.900000 0.000000
2.596667 0.109756 -0.000000 -0.000000 0.900000 0.000000
2.723333 0.109756 -0.000000 -0.000000 0.900000 0.000000
2.850000 0.109756 -0.000000 -0.000000 0.900000 0.000000
2.976667 0.109756 -0.000000 -0.000000 0.900000 0.000000
3.103333 0.109756 0.000000 -0.000000 0.900000 0.000000
3.230000 0.109756 0.000000 -0.000000 0.900000 0.000000
3.356667 0.109756 0.000000 -0.000000 0.900000 0.000000
3.483333 0.109756 0.000000 -0.000000 0.900000 0.000000
3.610000 0.109756 0.000000 0.000000 0.900000 0.000000
3.736667 0.109756 0.000000 0.000000 0.000000 0.000000
0.063333 0.124390 0.000000 0.000000 0.000000 0.000000
0.190000 0.124390 -0.000000 0.000000 0.900000 0.000000
0.316667 0.124390 -0.000000 -0.000000 0.900000 0.000000
0.443333 0.124390 -0.000000 -0.000000 0.900000 0.000000
0.570000 0.124390 -0.000000 -0.000000 0.900000 0.000000
0.696667 0.124390 -0.000000 -0.000000 0.900000 0.000000
0.823333 0.124390 -0.000000 -0.000000 0.900000 0.000000
0.950000 0.124390 -0.000000 -0.000000 0.900000 0.000000
1.076667 0.124390 -0.000000 -0.000000 0.900000 0.000000
1.203333 0.124390 -0.000000 -0.000000 0.900000 0.000000
1.330000 0.124390 -0.000000 -0.000000 0.900000 0.000000
1.456667 0.124390 -0.000000 -0.000000 0.900000 0.000000
1.583333 0.124390 -0.000000 -0.000000 0.900000 0.000000
1.710000 0.124390 -0.000000 -0.000000 0.900000 0.000000
1.836667 0.124390 -0.000000 0.000000 0.900000 0.000000
1.963333 0.124390 -0.000000 0.000000 0.900000 0.000000
2.090000 0.124390 -0.000000 -0.000000 0.900000 0.000000
2.216667 0.124390 -0.000000 -0.000000 0.900000 0.000000
2.343333 0.124390 -0.000000 -0.000000 0.900000 0.000000
2.470000 0.124390 -0.000000 -0.000000 0.900000 0.000000
2.596667 0.124390 -0.000000 -0.000000 0.900000 0.000000
2.723333 0.124390 -0.000000 -0.000000 0.900000 0.000000
2.850000 0.124390 -0.000000 -0.000000 0.900000 0.000000
2.976667 0.124390 -0.000000 -0.000000 0.900000 0.000000
3.103333 0.124390 0.000000 -0.000000 0.900000 0.000000
3.230000 0.124390 0.000000 -0.000000 0.900000 0.000000
3.356667 0.124390 0.000000 -0.000000 0.900000 0.000000
3.483333 0.124390 0.000000 -0.000000 0.900000 0.000000
3.610000 0.124390 0.000000 0.000000 0.900000 0.000000
3.736667 0.124390 0.000000 0.000000 0.000000 0.000000
0.063333 0.139024 0.000000 0.000000 0.000000 0.000000
0.190000 0.139024 -0.000000 0.000000 0.900000 0.000000
0.316667 0.139024 -0.000000 -0.000000 0.900000 0.000000
0.443333 0.139024 -0.000000 -0.000000 0.900000 0.000000
0.570000 0.139024 -0.000000 -0.000000 0.900000 0.000000
0.696667 0.139024 -0.000000 -0.000000 0.900000 0.000000
0.823333 0.139024 -0.000000 -0.000000 0.900000 0.000000
0.950000 0.139024 -0.000000 -0.000000 0.900000 0.000000
1.076667 0.139024 -0.000000 -0.000000 0.900000 0.000000
1.203333 0.139024 -0.000000 -0.000000 0.900000 0.000000
1.330000 0.139024 -0.000000 -0.000000 0.900000 0.000000
1.456667 0.139024 -0.000000 -0.000000 0.900000 0.000000
1.583333 0.139024 -0.000000 -0.000000 0.900000 0.000000
1.710000 0.139024 -0.000000 -0.000000 0.900000 0.000000
1.836667 0.139024 -0.000000 0.000000 0.900000 0.000000
1.963333 0.139024 -0.000000 0.000000 0.900000 0.000000
2.090000 0.139024 -0.000000 -0.000000 0.900000 0.000000
2.216667 0.139024 -0.000000 -0.000000 0.900000 0.000000
2.343333 0.139024 -0.000000 -0.000000 0.900000 0.000000
2.470000 0.139024 -0.000000 -0.000000 0.900000 0.000000
2.596667 0.139024 -0.000000 -0.000000 0.900000 0.000000
2.723333 0.139024 -0.000000 -0.000000 0.900000 0.000000
2.850000 0.139024 -0.000000 -0.000000 0.900000 0.000000
2.976667 0.139024 0.000000 -0.000000 0.900000 0.000000
3.103333 0.139024 0.000000 -0.000000 0.900000 0.000000
3.230000 0.139024 0.000000 -0.000000 0.900000 0.000000
3.356667 0.139024 0.000000 -0.000000 0.900000 0.000000
3.483333 0.139024 0.000000 -0.000000 0.900000 0.000000
3.610000 0.139024 0.000000 0.000000 0.900000 0.000000
3.736667 0.139024 0.000000 0.000000 0.000000 0.000000
0.063333 0.153659 0.000000 0.000000 0.000000 0.000000
0.190000 0.153659 -0.000000 0.000000 0.900000 0.000000
0.316667 0.153659 -0.000000 -0.000000 0.900000 0.000000
0.443333 0.153659 -0.000000 -0.000000 0.900000 0.000000
0.570000 0.153659 -0.000000 -0.000000 0.900000 0.000000
0.696667 0.153659 -0.000000 -0.000000 0.900000 0.000000
0.823333 0.153659 -0.000000 -0.000000 0.900000 0.000000
0.950000 0.153659 -0.000000 -0.000000 0.900000 0.000000
1.076667 0.153659 -0.000000 -0.000000 0.900000 0.000000
1.203333 0.153659 -0.000000 -0.000000 0.900000 0.000000
1.330000 0.153659 -0.000000 -0.000000 0.900000 0.000000
1.456667 0.153659 -0.000000 -0.000000 0.900000 0.000000
1.583333 0.153659 -0.000000 -0.000000 0.900000 0.000000
1.710000 0.153659 -0.000000 -0.000000 0.900000 0.000000
1.836667 0.153659 -0.000000 0.000000 0.900000 0.000000
1.963333 0.153659 -0.000000 0.000000 0.900000 0.000000
2.090000 0.153659 -0.000000 -0.000000 0.900000 0.000000
2.216667 0.153659 -0.000000 -0.000000 0.900000 0.000000
2.343333 0.153659 -0.000000 -0.000000 0.900000 0.000000
2.470000 0.153659 -0.000000 -0.000000 0.900000 0.000000
2.596667 0.153659 -0.000000 -0.000000 0.900000 0.000000
2.723333 0.153659 -0.000000 -0.000000 0.900000 0.000000
2.850000 0.153659 -0.000000 -0.000000 0.900000 0.000000
2.976667 0.153659 0.000000 -0.000000 0.900000 0.000000
3.103333 0.153659 0.000000 -0.000000 0.900000 0.000000
3.230000 0.153659 0.000000 -0.000000 0.900000 0.000000
3.356667 0.153659 0.000000 -0.000000 0.900000 0.000000
3.483333 0.153659 0.000000 -0.000000 0.900000 0.000000
3.610000 0.153659 0.000000 0.000000 0.900000 0.000000
3.736667 0.153659 0.000000 0.000000 0.000000 0.000000
0.063333 0.168293 0.000000 0.000000 0.000000 0.000000
0.190000 0.168293 -0.000000 0.000000 0.900000 0.000000
0.316667 0.168293 -0.000000 -0.000000 0.900000 0.000000
0.443333 0.168293 -0.000000 -0.000000 0.900000 0.000000
0.570000 0.168293 -0.000000 -0.000000 0.899999 0.000000
0.696667 0.168293 -0.000000 -0.000000 0.899999 0.000000
0.823333 0.168293 -0.000000 -0.000000 0.899999 0.000000
0.950000 0.168293 -0.000000 -0.000000 0.899999 0.000000
1.076667 0.168293 -0.000000 -0.000000 0.899999 0.000000
1.203333 0.168293 -0.000000 -0.000000 0.899999 0.000000
1.330000 0.168293 -0.000000 -0.000000 0.900000 0.000000
1.456667 0.168293 -0.000000 -0.000000 0.900000 0.000000
1.583333 0.168293 -0.000000 -0.000000 0.900000 0.000000
1.710000 0.168293 -0.000000 -0.000000 0.900000 0.000000
1.836667 0.168293 -0.000000 0.000000 0.900000 0.000000
1.963333 0.168293 -0.000000 0.000000 0.900000 0.000000
2.090000 0.168293 -0.000000 -0.000000 0.900000 0.000000
2.216667 0.168293 -0.000000 -0.000000 0.900000 0.000000
2.343333 0.168293 -0.000000 -0.000000 0.900000 0.000000
2.470000 0.168293 -0.000000 -0.000000 0.899999 0.000000
2.596667 0.168293 -0.000000 -0.000000 0.899999 0.000000
2.723333 0.168293 -0.000000 -0.000000 0.899999 0.000000
2.850000 0.168293 -0.000000 -0.000000 0.899999 0.000000
2.976667 0.168293 0.000000 -0.000000 0.900000 0.000000
3.103333 0.168293 0.000000 -0.000000 0.900000 0.000000
3.230000 0.168293 0.000000 -0.000000 0.899999 0.000000
3.356667 0.168293 0.000000 -0.000000 0.900000 0.000000
3.483333 0.168293 0.000000 -0.000000 0.900000 0.000000
3.610000 0.168293 0.000000 0.000000 0.900000 0.000000
3.736667 0.168293 0.000000 0.000000 0.000000 0.000000
0.063333 0.182927 0.000000 0.000000 0.000000 0.000000
0.190000 0.182927 -0.000000 0.000000 0.900000 0.000000
0.316667 0.182927 -0.000000 -0.000000 0.899999 0.000000
0.443333 0.182927 -0.000000 -0.000000 0.899993 0.000000
0.570000 0.182927 -0.000000 -0.000000 0.899982 0.000000
0.696667 0.182927 -0.000000 -0.000000 0.899976 0.000001
0.823333 0.182927 -0.000000 -0.000000 0.899972 0.000001
0.950000 0.182927 -0.000000 -0.000000 0.899974 0.000000
1.076667 0.182927 -0.000000 -0.000000 0.899973 0.000000
1.203333 0.182927 -0.000000 -0.000000 0.899979 0.000000
1.330000 0.182927 -0.000000 -0.000000 0.899988 0.000000
1.456667 0.182927 -0.000000 -0.000000 0.899991 0.000000
1.583333 0.182927 -0.000000 -0.000000 0.899993 0.000000
1.710000 0.182927 -0.000000 -0.000000 0.899999 0.000000
1.836667 0.182927 -0.000000 0.000000 0.900000 0.000000
1.963333 0.182927 -0.000000 0.000000 0.900000 0.000000
2.090000 0.182927 -0.000000 -0.000000 0.899998 0.000000
2.216667 0.182927 -0.000000 -0.000000 0.899988 0.000000
2.343333 0.182927 -0.000000 -0.000000 0.899982 0.000000
2.470000 0.182927 -0.000000 -0.000000 0.899973 0.000000
2.596667 0.182927 -0.000000 -0.000000 0.899966 0.000000
2.723333 0.182927 -0.000000 -0.000000 0.899967 0.000000
2.850000 0.182927 -0.000000 -0.000000 0.899965 0.000000
2.976667 0.182927 0.000000 -0.000000 0.899973 0.000000
3.103333 0.182927 0.000000 -0.000000 0.899973 0.000000
3.230000 0.182927 0.000000 -0.000000 0.899964 0.000000
3.356667 0.182927 0.000000 -0.000000 0.899996 0.000000
3.483333 0.182927 0.000000 -0.000000 0.899999 0.000000
3.610000 0.182927 0.000000 0.000000 0.900000 0.000000
3.736667 0.182927 0.000000 0.000000 0.000000 0.000000
0.063333 0.197561 0.000000 0.000000 0.000000 0.000000
0.190000 0.197561 -0.000000 0.000000 0.899999 0.000000
0.316667 0.197561 -0.000001 -0.000000 0.899910 0.000001
0.443333 0.197561 -0.000005 -0.000001 0.899712 0.000005
0.570000 0.197561 -0.000010 -0.000004 0.899521 0.000011
0.696667 0.197561 -0.000013 -0.000005 0.899400 0.000014
0.823333 0.197561 -0.000012 -0.000006 0.899347 0.000013
0.950000 0.197561 -0.000009 -0.000006 0.899399 0.000011
1.076667 0.197561 -0.000009 -0.000007 0.899388 0.000011
1.203333 0.197561 -0.000007 -0.000005 0.899476 0.000009
1.330000 0.197561 -0.000005 -0.000003 0.899632 0.000006
1.456667 0.197561 -0.000004 -0.000003 0.899683 0.000005
1.583333 0.197561 -0.000004 -0.000002 0.899732 0.000004
1.710000 0.197561 -0.000001 -0.000000 0.899932 0.000001
1.836667 0.197561 -0.000000 0.000000 0.900000 0.000000
1.963333 0.197561 -0.000000 0.000000 0.899999 0.000000
2.090000 0.197561 -0.000002 -0.000000 0.899868 0.000002
2.216667 0.197561 -0.000006 -0.000003 0.899514 0.000006
2.343333 0.197561 -0.000007 -0.000005 0.899343 0.000008
2.470000 0.197561 -0.000008 -0.000006 0.899117 0.000010
2.596667 0.197561 -0.000008 -0.000008 0.898928 0.000011
2.723333 0.197561 -0.000005 -0.000007 0.898886 0.000008
2.850000 0.197561 -0.000000 -0.000007 0.898819 0.000007
2.976667 0.197561 0.000005 -0.000005 0.898944 0.000007
3.103333 0.197561 0.000010 -0.000006 0.898990 0.000012
3.230000 0.197561 0.000013 -0.000007 0.898809 0.000015
3.356667 0.197561 0.000004 -0.000001 0.899548 0.000004
3.483333 0.197561 0.000002 -0.000000 0.899768 0.000002
3.610000 0.197561 0.000000 0.000000 0.899978 0.000000
3.736667 0.197561 0.000000 0.000000 0.000000 0.000000
0.063333 0.212195 0.000000 0.000000 0.000000 0.000000
0.190000 0.212195 -0.000000 0.000000 0.899940 0.000000
0.316667 0.212195 -0.000071 -0.000009 0.895556 0.000071
0.443333 0.212195 -0.000139 -0.000039 0.892723 0.000145
0.570000 0.212195 -0.000196 -0.000070 0.891174 0.000208
0.696667 0.212195 -0.000218 -0.000086 0.890026 0.000235
0.823333 0.212195 -0.000179 -0.000100 0.889849 0.000205
0.950000 0.212195 -0.000142 -0.000100 0.890560 0.000173
1.076667 0.212195 -0.000131 -0.000107 0.890536 0.000169
1.203333 0.212195 -0.000114 -0.000095 0.891169 0.000148
1.330000 0.212195 -0.000099 -0.000072 0.892435 0.000122
1.456667 0.212195 -0.000103 -0.000064 0.892645 0.000121
1.583333 0.212195 -0.000104 -0.000052 0.892881 0.000116
1.710000 0.212195 -0.000054 -0.000012 0.896390 0.000055
1.836667 0.212195 -0.000000 0.000000 0.899999 0.000000
1.963333 0.212195 -0.000001 0.000000 0.899921 0.000001
2.090000 0.212195 -0.000078 -0.000021 0.893560 0.000081
2.216667 0.212195 -0.000146 -0.000083 0.886952 0.000168
2.343333 0.212195 -0.000164 -0.000112 0.884139 0.000199
2.470000 0.212195 -0.000180 -0.000136 0.880655 0.000226
2.596667 0.212195 -0.000162 -0.000162 0.877848 0.000229
2.723333 0.212195 -0.000100 -0.000165 0.876085 0.000193
2.850000 0.212195 0.000005 -0.000164 0.874408 0.000164
2.976667 0.212195 0.000157 -0.000145 0.874575 0.000214
3.103333 0.212195 0.000231 -0.000150 0.875900 0.000276
3.230000 0.212195 0.000163 -0.000124 0.874134 0.000205
3.356667 0.212195 0.000045 -0.000047 0.871038 0.000064
3.483333 0.212195 -0.000015 -0.000005 0.858417 0.000015
3.610000 0.212195 -0.000019 0.000121 0.847988 0.000122
3.736667 0.212195 0.000000 0.000000 0.000000 0.000000
0.063333 0.226829 0.000000 0.000000 0.000000 0.000000
0.190000 0.226829 -0.000059 0.000495 0.787284 0.000498
0.316667 0.226829 -0.000378 -0.000195 0.795329 0.000425
0.443333 0.226829 -0.000878 -0.000507 0.805152 0.001014
0.570000 0.226829 -0.001321 -0.000738 0.808318 0.001513
0.696667 0.226829 -0.001307 -0.000881 0.809751 0.001577
0.823333 0.226829 -0.000963 -0.000957 0.812387 0.001358
0.950000 0.226829 -0.000783 -0.000954 0.815291 0.001235
1.076667 0.226829 -0.000792 -0.000996 0.815907 0.001272
1.203333 0.226829 -0.000881 -0.000947 0.815339 0.001293
1.330000 0.226829 -0.001022 -0.000856 0.812870 0.001333
1.456667 0.226829 -0.001190 -0.000848 0.806221 0.001461
1.583333 0.226829 -0.001184 -0.000792 0.798007 0.001424
1.710000 0.226829 -0.000976 -0.000370 0.795594 0.001044
1.836667 0.226829 -0.000995 0.000258 0.798692 0.001028
1.963333 0.226829 -0.001512 0.000313 0.782134 0.001544
2.090000 0.226829 -0.001836 -0.000567 0.745330 0.001922
2.216667 0.226829 -0.001254 -0.001252 0.720773 0.001772
2.343333 0.226829 -0.000850 -0.001486 0.702317 0.001712
2.470000 0.226829 -0.000823 -0.001624 0.685311 0.001820
2.596667 0.226829 -0.000849 -0.001815 0.669112 0.002003
2.723333 0.226829 -0.000762 -0.001940 0.653169 0.002084
2.850000 0.226829 -0.000387 -0.001949 0.637572 0.001987
2.976667 0.226829 0.000502 -0.001918 0.622049 0.001983
3.103333 0.226829 0.001156 -0.001924 0.606883 0.002244
3.230000 0.226829 0.000191 -0.001206 0.600032 0.001221
3.356667 0.226829 -0.001606 -0.000305 0.600000 0.001635
3.483333 0.226829 -0.002129 -0.000021 0.600040 0.002129
3.610000 0.226829 -0.000895 0.000634 0.607097 0.001097
3.736667 0.226829 0.000000 0.000000 0.000000 0.000000
0.063333 0.241463 0.000000 0.000000 0.000000 0.000000
0.190000 0.241463 0.001547 0.001069 0.616563 0.001881
0.316667 0.241463 0.003176 -0.000473 0.600169 0.003211
0.443333 0.241463 0.001950 -0.001396 0.600001 0.002398
0.570000 0.241463 0.000545 -0.002392 0.600007 0.002453
0.696667 0.241463 0.000951 -0.003216 0.600010 0.003353
0.823333 0.241463 0.002047 -0.003555 0.600009 0.004102
0.950000 0.241463 0.002583 -0.003599 0.600007 0.004429
1.076667 0.241463 0.002414 -0.003717 0.600003 0.004432
1.203333 0.241463 0.001713 -0.003502 0.600091 0.003898
1.330000 0.241463 0.001020 -0.003097 0.600461 0.003260
1.456667 0.241463 0.000647 -0.002900 0.600897 0.002971
1.583333 0.241463 0.001128 -0.002621 0.601043 0.002853
1.710000 0.241463 0.002558 -0.001280 0.600976 0.002860
1.836667 0.241463 0.001331 0.001033 0.613717 0.001685
1.963333 0.241463 -0.002540 0.001064 0.611491 0.002754
2.090000 0.241463 -0.003506 -0.001464 0.600252 0.003800
2.216667 0.241463 -0.001887 -0.002478 0.600141 0.003115
2.343333 0.241463 -0.001607 -0.002529 0.600039 0.002996
2.470000 0.241463 -0.002171 -0.002522 0.600000 0.003328
2.596667 0.241463 -0.002822 -0.002582 0.600000 0.003825
2.723333 0.241463 -0.003220 -0.002692 0.600000 0.004197
2.850000 0.241463 -0.003176 -0.002545 0.600000 0.004069
2.976667 0.241463 -0.002452 -0.002423 0.600000 0.003447
3.103333 0.241463 -0.001105 -0.002185 0.600000 0.002449
3.230000 0.241463 -0.000546 -0.001086 0.600000 0.001216
3.356667 0.241463 -0.001482 -0.000093 0.600000 0.001485
3.483333 0.241463 -0.001724 -0.000064 0.600000 0.001725
3.610000 0.241463 -0.000625 0.000552 0.600095 0.000834
3.736667 0.241463 0.000000 0.000000 0.000000 0.000000
0.063333 0.256098 0.000000 0.000000 0.000000 0.000000
0.190000 0.256098 0.000868 0.000905 0.600634 0.001254
0.316667 0.256098 0.002184 -0.000452 0.600003 0.002231
0.443333 0.256098 0.001627 -0.001102 0.600000 0.001965
0.570000 0.256098 0.000433 -0.002344 0.600000 0.002383
0.696667 0.256098 0.000864 -0.003437 0.600000 0.003544
0.823333 0.256098 0.001853 -0.003769 0.600000 0.004199
0.950000 0.256098 0.002295 -0.003788 0.600000 0.004429
1.076667 0.256098 0.002107 -0.003854 0.600000 0.004392
1.203333 0.256098 0.001496 -0.003641 0.600000 0.003937
1.330000 0.256098 0.000868 -0.003283 0.600000 0.003396
1.456667 0.256098 0.000429 -0.003140 0.600002 0.003169
1.583333 0.256098 0.000752 -0.002988 0.600002 0.003081
1.710000 0.256098 0.002589 -0.001675 0.600002 0.003083
1.836667 0.256098 0.001624 0.001626 0.600632 0.002298
1.963333 0.256098 -0.002823 0.001605 0.600477 0.003247
2.090000 0.256098 -0.003533 -0.001937 0.600000 0.004029
2.216667 0.256098 -0.001723 -0.002861 0.600000 0.003339
2.343333 0.256098 -0.001580 -0.002791 0.600000 0.003208
2.470000 0.256098 -0.002170 -0.002739 0.600000 0.003495
2.596667 0.256098 -0.002761 -0.002767 0.600000 0.003909
2.723333 0.256098 -0.003165 -0.002954 0.600000 0.004329
2.850000 0.256098 -0.003196 -0.002788 0.600000 0.004241
2.976667 0.256098 -0.002548 -0.002692 0.600000 0.003707
3.103333 0.256098 -0.001288 -0.002424 0.600000 0.002745
3.230000 0.256098 -0.000666 -0.001043 0.600000 0.001237
3.356667 0.256098 -0.001389 0.000098 0.600000 0.001393
3.483333 0.256098 -0.001541 -0.000126 0.600000 0.001546
3.610000 0.256098 -0.000546 0.000480 0.600001 0.000727