TITLE="(Vx,Vy)"
VARIABLES=X,Y,Vx,Vy,Vm,V
ZONE T="T-Dummy" I=30, J=41, F=POINT
0.063333 0.007317 0.000000 0.000000 0.000000 0.000000
0.190000 0.007317 0.000000 0.000000 0.000000 0.000000
0.316667 0.007317 0.000000 0.000000 0.000000 0.000000
0.443333 0.007317 0.000000 0.000000 0.000000 0.000000
0.570000 0.007317 0.000000 0.000000 0.000000 0.000000
0.696667 0.007317 0.000000 0.000000 0.000000 0.000000
0.823333 0.007317 0.000000 0.000000 0.000000 0.000000
0.950000 0.007317 0.000000 0.000000 0.000000 0.000000
1.076667 0.007317 0.000000 0.000000 0.000000 0.000000
1.203333 0.007317 0.000000 0.000000 0.000000 0.000000
1.330000 0.007317 0.000000 0.000000 0.000000 0.000000
1.456667 0.007317 0.000000 0.000000 0.000000 0.000000
1.583333 0.007317 0.000000 0.000000 0.000000 0.000000
1.710000 0.007317 0.000000 0.000000 0.000000 0.000000
1.836667 0.007317 0.000000 0.000000 0.000000 0.000000
1.963333 0.007317 0.000000 0.000000 0.000000 0.000000
2.090000 0.007317 0.000000 0.000000 0.000000 0.000000
2.216667 0.007317 0.000000 0.000000 0.000000 0.000000
2.343333 0.007317 0.000000 0.000000 0.000000 0.000000
2.470000 0.007317 0.000000 0.000000 0.000000 0.000000
2.596667 0.007317 0.000000 0.000000 0.000000 0.000000
2.723333 0.007317 0.000000 0.000000 0.000000 0.000000
2.850000 0.007317 0.000000 0.000000 0.000000 0.000000
2.976667 0.007317 0.000000 0.000000 0.000000 0.000000
3.103333 0.007317 0.000000 0.000000 0.000000 0.000000
3.230000 0.007317 0.000000 0.000000 0.000000 0.000000
3.356667 0.007317 0.000000 0.000000 0.000000 0.000000
3.483333 0.007317 0.000000 0.000000 0.000000 0.000000
3.610000 0.007317 0.000000 0.000000 0.000000 0.000000
3.736667 0.007317 0.000000 0.000000 0.000000 0.000000
0.063333 0.021951 0.000000 0.000000 0.000000 0.000000
0.190000 0.021951 -0.000000 0.000000 0.900000 0.000000
0.316667 0.021951 -0.000000 -0.000000 0.900000 0.000000
0.443333 0.021951 -0.000000 -0.000000 0.900000 0.000000
0.570000 0.021951 -0.000000 -0.000000 0.900000 0.000000
0.696667 0.021951 -0.000000 -0.000000 0.900000 0.000000
0.823333 0.021951 -0.000000 -0.000000 0.900000 0.000000
0.950000 0.021951 0.000000 -0.000000 0.900000 0.000000
1.076667 0.021951 0.000000 0.000000 0.900000 0.000000
1.203333 0.021951 0.000000 0.000000 0.900000 0.000000
1.330000 0.021951 0.000000 0.000000 0.900000 0.000000
1.456667 0.021951 0.000000 0.000000 0.900000 0.000000
1.583333 0.021951 0.000000 0.000000 0.900000 0.000000
1.710000 0.021951 0.000000 0.000000 0.900000 0.000000
1.836667 0.021951 0.000000 0.000000 0.900000 0.000000
1.963333 0.021951 0.000000 0.000000 0.900000 0.000000
2.090000 0.021951 0.000000 0.000000 0.900000 0.000000
2.216667 0.021951 0.000000 -0.000000 0.900000 0.000000
2.343333 0.021951 0.000000 -0.000000 0.900000 0.000000
2.470000 0.021951 0.000000 0.000000 0.900000 0.000000
2.596667 0.021951 0.000000 0.000000 0.900000 0.000000
2.723333 0.021951 0.000000 0.000000 0.900000 0.000000
2.850000 0.021951 0.000000 0.000000 0.900000 0.000000
2.976667 0.021951 0.000000 0.000000 0.900000 0.000000
3.103333 0.021951 0.000000 0.000000 0.900000 0.000000
3.230000 0.021951 0.000000 0.000000 0.900000 0.000000
3.356667 0.021951 0.000000 0.000000 0.900000 0.000000
3.483333 0.021951 0.000000 0.000000 0.900000 0.000000
3.610000 0.021951 0.000000 0.000000 0.900000 0.000000
3.736667 0.021951 0.000000 0.000000 0.000000 0.000000
0.063333 0.036585 0.000000 0.000000 0.000000 0.000000
0.190000 0.036585 -0.000000 0.000000 0.900000 0.000000
0.316667 0.036585 -0.000000 -0.000000 0.900000 0.000000
0.443333 0.036585 -0.000000 -0.000000 0.900000 0.000000
0.570000 0.036585 -0.000000 -0.000000 0.900000 0.000000
0.696667 0.036585 0.000000 -0.000000 0.900000 0.000000
0.823333 0.036585 0.000000 -0.000000 0.900000 0.000000
0.950000 0.036585 0.000000 -0.000000 0.900000 0.000000
1.076667 0.036585 0.000000 -0.000000 0.900000 0.000000
1.203333 0.036585 0.000000 0.000000 0.900000 0.000000
1.330000 0.036585 0.000000 0.000000 0.900000 0.000000
1.456667 0.036585 0.000000 0.000000 0.900000 0.000000
1.583333 0.036585 0.000000 -0.000000 0.900000 0.000000
1.710000 0.036585 0.000000 -0.000000 0.900000 0.000000
1.836667 0.036585 0.000000 -0.000000 0.900000 0.000000
1.963333 0.036585 0.000000 0.000000 0.900000 0.000000
2.090000 0.036585 0.000000 -0.000000 0.900000 0.000000
2.216667 0.036585 0.000000 -0.000000 0.900000 0.000000
2.343333 0.036585 0.000000 -0.000000 0.900000 0.000000
2.470000 0.036585 0.000000 0.000000 0.900000 0.000000
2.596667 0.036585 0.000000 0.000000 0.900000 0.000000
2.723333 0.036585 0.000000 0.000000 0.900000 0.000000
2.850000 0.036585 0.000000 -0.000000 0.900000 0.000000
2.976667 0.036585 0.000000 0.000000 0.900000 0.000000
3.103333 0.036585 0.000000 0.000000 0.900000 0.000000
3.230000 0.036585 0.000000 0.000000 0.900000 0.000000
3.356667 0.036585 0.000000 0.000000 0.900000 0.000000
3.483333 0.036585 0.000000 0.000000 0.900000 0.000000
3.610000 0.036585 0.000000 0.000000 0.900000 0.000000
3.736667 0.036585 0.000000 0.000000 0.000000 0.000000
0.063333 0.051220 0.000000 0.000000 0.000000 0.000000
0.190000 0.051220 -0.000000 0.000000 0.900000 0.000000
0.316667 0.051220 -0.000000 -0.000000 0.900000 0.000000
0.443333 0.051220 -0.000000 -0.000000 0.900000 0.000000
0.570000 0.051220 -0.000000 -0.000000 0.900000 0.000000
0.696667 0.051220 -0.000000 -0.000000 0.900000 0.000000
0.823333 0.051220 0.000000 -0.000000 0.900000 0.000000
0.950000 0.051220 0.000000 -0.000000 0.900000 0.000000
1.076667 0.051220 0.000000 -0.000000 0.900000 0.000000
1.203333 0.051220 0.000000 -0.000000 0.900000 0.000000
1.330000 0.051220 0.000000 -0.000000 0.900000 0.000000
1.456667 0.051220 0.000000 -0.000000 0.900000 0.000000
1.583333 0.051220 0.000000 -0.000000 0.900000 0.000000
1.710000 0.051220 0.000000 -0.000000 0.900000 0.000000
1.836667 0.051220 0.000000 -0.000000 0.900000 0.000000
1.963333 0.051220 0.000000 -0.000000 0.900000 0.000000
2.090000 0.051220 0.000000 -0.000000 0.900000 0.000000
2.216667 0.051220 0.000000 -0.000000 0.900000 0.000000
2.343333 0.051220 0.000000 -0.000000 0.900000 0.000000
2.470000 0.051220 0.000000 -0.000000 0.900000 0.000000
2.596667 0.051220 0.000000 0.000000 0.900000 0.000000
2.723333 0.051220 0.000000 -0.000000 0.900000 0.000000
2.850000 0.051220 0.000000 -0.000000 0.900000 0.000000
2.976667 0.051220 0.000000 0.000000 0.900000 0.000000
3.103333 0.051220 0.000000 0.000000 0.900000 0.000000
3.230000 0.051220 0.000000 -0.000000 0.900000 0.000000
3.356667 0.051220 0.000000 0.000000 0.900000 0.000000
3.483333 0.051220 0.000000 0.000000 0.900000 0.000000
3.610000 0.051220 0.000000 0.000000 0.900000 0.000000
3.736667 0.051220 0.000000 0.000000 0.000000 0.000000
0.063333 0.065854 0.000000 0.000000 0.000000 0.000000
0.190000 0.065854 -0.000000 0.000000 0.900000 0.000000
0.316667 0.065854 -0.000000 -0.000000 0.900000 0.000000
0.443333 0.065854 -0.000000 -0.000000 0.900000 0.000000
0.570000 0.065854 -0.000000 -0.000000 0.900000 0.000000
0.696667 0.065854 -0.000000 -0.000000 0.900000 0.000000
0.823333 0.065854 0.000000 -0.000000 0.900000 0.000000
0.950000 0.065854 0.000000 -0.000000 0.900000 0.000000
1.076667 0.065854 0.000000 -0.000000 0.900000 0.000000
1.203333 0.065854 0.000000 -0.000000 0.900000 0.000000
1.330000 0.065854 0.000000 -0.000000 0.900000 0.000000
1.456667 0.065854 0.000000 -0.000000 0.900000 0.000000
1.583333 0.065854 0.000000 -0.000000 0.900000 0.000000
1.710000 0.065854 0.000000 -0.000000 0.900000 0.000000
1.836667 0.065854 0.000000 -0.000000 0.900000 0.000000
1.963333 0.065854 0.000000 -0.000000 0.900000 0.000000
2.090000 0.065854 0.000000 -0.000000 0.900000 0.000000
2.216667 0.065854 0.000000 -0.000000 0.900000 0.000000
2.343333 0.065854 0.000000 -0.000000 0.900000 0.000000
2.470000 0.065854 0.000000 -0.000000 0.900000 0.000000
2.596667 0.065854 0.000000 -0.000000 0.900000 0.000000
2.723333 0.065854 0.000000 -0.000000 0.900000 0.000000
2.850000 0.065854 0.000000 -0.000000 0.900000 0.000000
2.976667 0.065854 0.000000 0.000000 0.900000 0.000000
3.103333 0.065854 0.000000 0.000000 0.900000 0.000000
3.230000 0.065854 0.000000 -0.000000 0.900000 0.000000
3.356667 0.065854 0.000000 0.000000 0.900000 0.000000
3.483333 0.065854 0.000000 0.000000 0.900000 0.000000
3.610000 0.065854 0.000000 0.000000 0.900000 0.000000
3.736667 0.065854 0.000000 0.000000 0.000000 0.000000
0.063333 0.080488 0.000000 0.000000 0.000000 0.000000
0.190000 0.080488 -0.000000 0.000000 0.900000 0.000000
0.316667 0.080488 -0.000000 -0.000000 0.900000 0.000000
0.443333 0.080488 -0.000000 -0.000000 0.900000 0.000000
0.570000 0.080488 -0.000000 -0.000000 0.900000 0.000000
0.696667 0.080488 -0.000000 -0.000000 0.900000 0.000000
0.823333 0.080488 0.000000 -0.000000 0.900000 0.000000
0.950000 0.080488 0.000000 -0.000000 0.900000 0.000000
1.076667 0.080488 0.000000 -0.000000 0.900000 0.000000
1.203333 0.080488 0.000000 -0.000000 0.900000 0.000000
1.330000 0.080488 0.000000 -0.000000 0.900000 0.000000
1.456667 0.080488 0.000000 -0.000000 0.900000 0.000000
1.583333 0.080488 0.000000 -0.000000 0.900000 0.000000
1.710000 0.080488 0.000000 -0.000000 0.900000 0.000000
1.836667 0.080488 0.000000 -0.000000 0.900000 0.000000
1.963333 0.080488 0.000000 -0.000000 0.900000 0.000000
2.090000 0.080488 0.000000 -0.000000 0.900000 0.000000
2.216667 0.080488 0.000000 -0.000000 0.900000 0.000000
2.343333 0.080488 0.000000 -0.000000 0.900000 0.000000
2.470000 0.080488 0.000000 -0.000000 0.900000 0.000000
2.596667 0.080488 0.000000 -0.000000 0.900000 0.000000
2.723333 0.080488 0.000000 -0.000000 0.900000 0.000000
2.850000 0.080488 0.000000 -0.000000 0.900000 0.000000
2.976667 0.080488 0.000000 0.000000 0.900000 0.000000
3.103333 0.080488 0.000000 0.000000 0.900000 0.000000
3.230000 0.080488 0.000000 -0.000000 0.900000 0.000000
3.356667 0.080488 0.000000 0.000000 0.900000 0.000000
3.483333 0.080488 0.000000 0.000000 0.900000 0.000000
3.610000 0.080488 0.000000 0.000000 0.900000 0.000000
3.736667 0.080488 0.000000 0.000000 0.000000 0.000000
0.063333 0.095122 0.000000 0.000000 0.000000 0.000000
0.190000 0.095122 -0.000000 0.000000 0.900000 0.000000
0.316667 0.095122 -0.000000 -0.000000 0.900000 0.000000
0.443333 0.095122 -0.000000 -0.000000 0.900000 0.000000
0.570000 0.095122 -0.000000 -0.000000 0.900000 0.000000
0.696667 0.095122 -0.000000 -0.000000 0.900000 0.000000
0.823333 0.095122 0.000000 -0.000000 0.900000 0.000000
0.950000 0.095122 0.000000 -0.000000 0.900000 0.000000
1.076667 0.095122 0.000000 -0.000000 0.900000 0.000000
1.203333 0.095122 0.000000 -0.000000 0.900000 0.000000
1.330000 0.095122 0.000000 -0.000000 0.900000 0.000000
1.456667 0.095122 0.000000 -0.000000 0.900000 0.000000
1.583333 0.095122 0.000000 -0.000000 0.900000 0.000000
1.710000 0.095122 0.000000 -0.000000 0.900000 0.000000
1.836667 0.095122 0.000000 -0.000000 0.900000 0.000000
1.963333 0.095122 0.000000 -0.000000 0.900000 0.000000
2.090000 0.095122 0.000000 -0.000000 0.900000 0.000000
2.216667 0.095122 0.000000 -0.000000 0.900000 0.000000
2.343333 0.095122 0.000000 -0.000000 0.900000 0.000000
2.470000 0.095122 0.000000 -0.000000 0.900000 0.000000
2.596667 0.095122 0.000000 -0.000000 0.900000 0.000000
2.723333 0.095122 0.000000 -0.000000 0.900000 0.000000
2.850000 0.095122 0.000000 -0.000000 0.900000 0.000000
2.976667 0.095122 0.000000 0.000000 0.900000 0.000000
3.103333 0.095122 0.000000 0.000000 0.900000 0.000000
3.230000 0.095122 0.000000 -0.000000 0.900000 0.000000
3.356667 0.095122 0.000000 0.000000 0.900000 0.000000
3.483333 0.095122 0.000000 0.000000 0.900000 0.000000
3.610000 0.095122 0.000000 0.000000 0.900000 0.000000
3.736667 0.095122 0.000000 0.000000 0.000000 0.000000
0.063333 0.109756 0.000000 0.000000 0.000000 0.000000
0.190000 0.109756 -0.000000 0.000000 0.900000 0.000000
0.316667 0.109756 -0.000000 -0.000000 0.900000 0.000000
0.443333 0.109756 -0.000000 -0.000000 0.900000 0.000000
0.570000 0.109756 -0.000000 -0.000000 0.900000 0.000000
0.696667 0.109756 -0.000000 -0.000000 0.900000 0.000000
0.823333 0.109756 0.000000 -0.000000 0.900000 0.000000
0.950000 0.109756 0.000000 -0.000000 0.900000 0.000000
1.076667 0.109756 0.000000 -0.000000 0.900000 0.000000
1.203333 0.109756 0.000000 -0.000000 0.900000 0.000000
1.330000 0.109756 0.000000 -0.000000 0.900000 0.000000
1.456667 0.109756 0.000000 -0.000000 0.900000 0.000000
1.583333 0.109756 0.000000 -0.000000 0.900000 0.000000
1.710000 0.109756 0.000000 -0.000000 0.900000 0.000000
1.836667 0.109756 0.000000 -0.000000 0.900000 0.000000
1.963333 0.109756 0.000000 -0.000000 0.900000 0.000000
2.090000 0.109756 0.000000 -0.000000 0.900000 0.000000
2.216667 0.109756 0.000000 -0.000000 0.900000 0.000000
2.343333 0.109756 0.000000 -0.000000 0.900000 0.000000
2.470000 0.109756 0.000000 -0.000000 0.900000 0.000000
2.596667 0.109756 0.000000 -0.000000 0.900000 0.000000
2.723333 0.109756 0.000000 -0.000000 0.900000 0.000000
2.850000 0.109756 0.000000 -0.000000 0.900000 0.000000
2.976667 0.109756 0.000000 0.000000 0.900000 0.000000
3.103333 0.109756 0.000000 0.000000 0.900000 0.000000
3.230000 0.109756 0.000000 -0.000000 0.900000 0.000000
3.356667 0.109756 0.000000 0.000000 0.900000 0.000000
3.483333 0.109756 0.000000 0.000000 0.900000 0.000000
3.610000 0.109756 0.000000 0.000000 0.900000 0.000000
3.736667 0.109756 0.000000 0.000000 0.000000 0.000000
0.063333 0.124390 0.000000 0.000000 0.000000 0.000000
0.190000 0.124390 -0.000000 0.000000 0.900000 0.000000
0.316667 0.124390 -0.000000 -0.000000 0.900000 0.000000
0.443333 0.124390 -0.000000 -0.000000 0.900000 0.000000
0.570000 0.124390 -0.000000 -0.000000 0.900000 0.000000
0.696667 0.124390 -0.000000 -0.000000 0.900000 0.000000
0.823333 0.124390 -0.000000 -0.000000 0.900000 0.000000
0.950000 0.124390 0.000000 -0.000000 0.900000 0.000000
1.076667 0.124390 0.000000 -0.000000 0.900000 0.000000
1.203333 0.124390 0.000000 -0.000000 0.900000 0.000000
1.330000 0.124390 0.000000 -0.000000 0.900000 0.000000
1.456667 0.124390 0.000000 -0.000000 0.900000 0.000000
1.583333 0.124390 0.000000 -0.000000 0.900000 0.000000
1.710000 0.124390 0.000000 -0.000000 0.900000 0.000000
1.836667 0.124390 0.000000 -0.000000 0.900000 0.000000
1.963333 0.124390 0.000000 -0.000000 0.900000 0.000000
2.090000 0.124390 0.000000 -0.000000 0.900000 0.000000
2.216667 0.124390 0.000000 -0.000000 0.900000 0.000000
2.343333 0.124390 0.000000 -0.000000 0.900000 0.000000
2.470000 0.124390 0.000000 -0.000000 0.900000 0.000000
2.596667 0.124390 0.000000 -0.000000 0.900000 0.000000
2.723333 0.124390 0.000000 -0.000000 0.900000 0.000000
2.850000 0.124390 0.000000 -0.000000 0.900000 0.000000
2.976667 0.124390 0.000000 0.000000 0.900000 0.000000
3.103333 0.124390 0.000000 0.000000 0.900000 0.000000
3.230000 0.124390 0.000000 -0.000000 0.900000 0.000000
3.356667 0.124390 0.000000 0.000000 0.900000 0.000000
3.483333 0.124390 0.000000 0.000000 0.900000 0.000000
3.610000 0.124390 0.000000 0.000000 0.900000 0.000000
3.736667 0.124390 0.000000 0.000000 0.000000 0.000000
0.063333 0.139024 0.000000 0.000000 0.000000 0.000000
0.190000 0.139024 -0.000000 0.000000 0.900000 0.000000
0.316667 0.139024 -0.000000 -0.000000 0.900000 0.000000
0.443333 0.139024 -0.000000 -0.000000 0.900000 0.000000
0.570000 0.139024 -0.000000 -0.000000 0.900000 0.000000
0.696667 0.139024 -0.000000 -0.000000 0.900000 0.000000
0.823333 0.139024 -0.000000 -0.000000 0.900000 0.000000
0.950000 0.139024 0.000000 -0.000000 0.900000 0.000000
1.076667 0.139024 0.000000 -0.000000 0.900000 0.000000
1.203333 0.139024 0.000000 -0.000000 0.900000 0.000000
1.330000 0.139024 0.000000 -0.000000 0.900000 0.000000
1.456667 0.139024 0.000000 -0.000000 0.900000 0.000000
1.583333 0.139024 0.000000 -0.000000 0.900000 0.000000
1.710000 0.139024 0.000000 -0.000000 0.900000 0.000000
1.836667 0.139024 0.000000 -0.000000 0.900000 0.000000
1.963333 0.139024 0.000000 -0.000000 0.900000 0.000000
2.090000 0.139024 0.000000 -0.000000 0.900000 0.000000
2.216667 0.139024 0.000000 -0.000000 0.900000 0.000000
2.343333 0.139024 0.000000 -0.000000 0.900000 0.000000
2.470000 0.139024 0.000000 -0.000000 0.900000 0.000000
2.596667 0.139024 0.000000 -0.000000 0.900000 0.000000
2.723333 0.139024 0.000000 -0.000000 0.900000 0.000000
2.850000 0.139024 0.000000 -0.000000 0.900000 0.000000
2.976667 0.139024 0.000000 -0.000000 0.900000 0.000000
3.103333 0.139024 0.000000 0.000000 0.900000 0.000000
3.230000 0.139024 0.000000 -0.000000 0.900000 0.000000
3.356667 0.139024 0.000000 0.000000 0.900000 0.000000
3.483333 0.139024 0.000000 0.000000 0.900000 0.000000
3.610000 0.139024 0.000000 0.000000 0.900000 0.000000
3.736667 0.139024 0.000000 0.000000 0.000000 0.000000
0.063333 0.153659 0.000000 0.000000 0.000000 0.000000
0.190000 0.153659 -0.000000 0.000000 0.900000 0.000000
0.316667 0.153659 -0.000000 -0.000000 0.900000 0.000000
0.443333 0.153659 -0.000000 -0.000000 0.900000 0.000000
0.570000 0.153659 -0.000000 -0.000000 0.900000 0.000000
0.696667 0.153659 -0.000000 -0.000000 0.900000 0.000000
0.823333 0.153659 -0.000000 -0.000000 0.900000 0.000000
0.950000 0.153659 0.000000 -0.000000 0.900000 0.000000
1.076667 0.153659 0.000000 -0.000000 0.900000 0.000000
1.203333 0.153659 0.000000 -0.000000 0.900000 0.000000
1.330000 0.153659 0.000000 -0.000000 0.900000 0.000000
1.456667 0.153659 0.000000 -0.000000 0.900000 0.000000
1.583333 0.153659 0.000000 -0.000000 0.900000 0.000000
1.710000 0.153659 0.000000 -0.000000 0.900000 0.000000
1.836667 0.153659 0.000000 -0.000000 0.900000 0.000000
1.963333 0.153659 0.000000 -0.000000 0.900000 0.000000
2.090000 0.153659 0.000000 -0.000000 0.900000 0.000000
2.216667 0.153659 0.000000 -0.000000 0.900000 0.000000
2.343333 0.153659 0.000000 -0.000000 0.900000 0.000000
2.470000 0.153659 0.000000 -0.000000 0.900000 0.000000
2.596667 0.153659 0.000000 -0.000000 0.900000 0.000000
2.723333 0.153659 0.000000 -0.000000 0.900000 0.000000
2.850000 0.153659 0.000000 -0.000000 0.900000 0.000000
2.976667 0.153659 0.000000 -0.000000 0.900000 0.000000
3.103333 0.153659 0.000000 0.000000 0.900000 0.000000
3.230000 0.153659 0.000000 -0.000000 0.899999 0.000000
3.356667 0.153659 0.000001 0.000000 0.899992 0.000001
3.483333 0.153659 0.000000 0.000000 0.899999 0.000000
3.610000 0.153659 0.000000 0.000000 0.900000 0.000000
3.736667 0.153659 0.000000 0.000000 0.000000 0.000000
0.063333 0.168293 0.000000 0.000000 0.000000 0.000000
0.190000 0.168293 -0.000000 0.000000 0.900000 0.000000
0.316667 0.168293 -0.000000 -0.000000 0.900000 0.000000
0.443333 0.168293 -0.000000 -0.000000 0.900000 0.000000
0.570000 0.168293 -0.000000 -0.000000 0.900000 0.000000
0.696667 0.168293 -0.000000 -0.000000 0.900000 0.000000
0.823333 0.168293 -0.000000 -0.000000 0.900000 0.000000
0.950000 0.168293 0.000000 -0.000000 0.900000 0.000000
1.076667 0.168293 0.000000 -0.000000 0.900000 0.000000
1.203333 0.168293 0.000000 -0.000000 0.900000 0.000000
1.330000 0.168293 0.000000 -0.000000 0.900000 0.000000
1.456667 0.168293 0.000000 -0.000000 0.900000 0.000000
1.583333 0.168293 0.000000 -0.000000 0.900000 0.000000
1.710000 0.168293 0.000000 -0.000000 0.900000 0.000000
1.836667 0.168293 0.000000 -0.000000 0.900000 0.000000
1.963333 0.168293 0.000000 -0.000000 0.900000 0.000000
2.090000 0.168293 0.000000 -0.000000 0.900000 0.000000
2.216667 0.168293 0.000000 -0.000000 0.900000 0.000000
2.343333 0.168293 0.000000 -0.000000 0.900000 0.000000
2.470000 0.168293 0.000000 -0.000000 0.900000 0.000000
2.596667 0.168293 0.000000 -0.000000 0.900000 0.000000
2.723333 0.168293 0.000000 -0.000000 0.900000 0.000000
2.850000 0.168293 0.000001 -0.000000 0.899990 0.000001
2.976667 0.168293 0.000000 -0.000000 0.899995 0.000000
3.103333 0.168293 0.000000 0.000000 0.899996 0.000000
3.230000 0.168293 0.000003 -0.000000 0.899959 0.000003
3.356667 0.168293 0.000082 0.000004 0.899005 0.000082
3.483333 0.168293 0.000008 0.000003 0.899894 0.000008
3.610000 0.168293 0.000069 0.000111 0.897819 0.000131
3.736667 0.168293 0.000000 0.000000 0.000000 0.000000
0.063333 0.182927 0.000000 0.000000 0.000000 0.000000
0.190000 0.182927 -0.000000 0.000000 0.900000 0.000000
0.316667 0.182927 -0.000000 -0.000000 0.900000 0.000000
0.443333 0.182927 -0.000000 -0.000000 0.899996 0.000000
0.570000 0.182927 -0.000000 -0.000000 0.899999 0.000000
0.696667 0.182927 -0.000000 -0.000000 0.900000 0.000000
0.823333 0.182927 -0.000000 -0.000000 0.900000 0.000000
0.950000 0.182927 0.000000 -0.000000 0.900000 0.000000
1.076667 0.182927 0.000000 -0.000000 0.900000 0.000000
1.203333 0.182927 0.000000 -0.000000 0.900000 0.000000
1.330000 0.182927 0.000000 -0.000000 0.900000 0.000000
1.456667 0.182927 0.000000 -0.000000 0.900000 0.000000
1.583333 0.182927 0.000000 -0.000000 0.900000 0.000000
1.710000 0.182927 0.000000 -0.000000 0.900000 0.000000
1.836667 0.182927 0.000000 -0.000000 0.900000 0.000000
1.963333 0.182927 0.000000 -0.000000 0.900000 0.000000
2.090000 0.182927 0.000000 -0.000000 0.900000 0.000000
2.216667 0.182927 0.000000 -0.000000 0.899999 0.000000
2.343333 0.182927 0.000001 -0.000000 0.899984 0.000001
2.470000 0.182927 0.000000 -0.000000 0.899997 0.000000
2.596667 0.182927 0.000000 -0.000000 0.899994 0.000000
2.723333 0.182927 0.000002 -0.000000 0.899978 0.000002
2.850000 0.182927 0.000042 -0.000003 0.899517 0.000042
2.976667 0.182927 0.000071 -0.000001 0.899207 0.000071
3.103333 0.182927 0.000082 0.000001 0.899062 0.000082
3.230000 0.182927 0.000098 0.000001 0.898619 0.000098
3.356667 0.182927 0.001773 0.000221 0.856164 0.001787
3.483333 0.182927 0.002834 0.002998 0.778121 0.004126
3.610000 0.182927 0.001521 0.007925 0.758991 0.008070
3.736667 0.182927 0.000000 0.000000 0.000000 0.000000
0.063333 0.197561 0.000000 0.000000 0.000000 0.000000
0.190000 0.197561 -0.000000 0.000000 0.900000 0.000000
0.316667 0.197561 -0.000000 -0.000000 0.899987 0.000000
0.443333 0.197561 -0.000002 -0.000001 0.899901 0.000002
0.570000 0.197561 -0.000000 -0.000000 0.899976 0.000000
0.696667 0.197561 -0.000000 -0.000000 0.899983 0.000000
0.823333 0.197561 -0.000000 -0.000000 0.899992 0.000000
0.950000 0.197561 0.000000 -0.000000 0.899999 0.000000
1.076667 0.197561 0.000000 -0.000000 0.900000 0.000000
1.203333 0.197561 0.000000 -0.000000 0.900000 0.000000
1.330000 0.197561 0.000000 -0.000000 0.900000 0.000000
1.456667 0.197561 0.000000 -0.000000 0.900000 0.000000
1.583333 0.197561 0.000000 -0.000000 0.900000 0.000000
1.710000 0.197561 0.000000 -0.000000 0.899996 0.000000
1.836667 0.197561 0.000001 -0.000000 0.899983 0.000001
1.963333 0.197561 0.000001 -0.000000 0.899976 0.000001
2.090000 0.197561 0.000001 -0.000000 0.899991 0.000001
2.216667 0.197561 0.000004 -0.000000 0.899945 0.000004
2.343333 0.197561 0.000055 -0.000005 0.899226 0.000056
2.470000 0.197561 0.000054 -0.000002 0.899303 0.000054
2.596667 0.197561 0.000102 -0.000002 0.898719 0.000102
2.723333 0.197561 0.000172 -0.000004 0.897816 0.000172
2.850000 0.197561 0.000629 -0.000037 0.889464 0.000630
2.976667 0.197561 0.003204 -0.000032 0.818948 0.003204
3.103333 0.197561 0.005608 0.000206 0.737474 0.005612
3.230000 0.197561 0.004082 0.001044 0.651497 0.004214
3.356667 0.197561 -0.004920 0.002489 0.607386 0.005513
3.483333 0.197561 -0.008610 0.006444 0.630425 0.010754
3.610000 0.197561 -0.003658 0.013761 0.653693 0.014238
3.736667 0.197561 0.000000 0.000000 0.000000 0.000000
0.063333 0.212195 0.000000 0.000000 0.000000 0.000000
0.190000 0.212195 -0.000000 0.000000 0.899992 0.000000
0.316667 0.212195 -0.000013 -0.000002 0.899460 0.000013
0.443333 0.212195 -0.000035 -0.000023 0.898206 0.000042
0.570000 0.212195 -0.000008 -0.000008 0.899362 0.000011
0.696667 0.212195 -0.000004 -0.000005 0.899487 0.000006
0.823333 0.212195 -0.000000 -0.000003 0.899666 0.000003
0.950000 0.212195 0.000000 -0.000000 0.899927 0.000001
1.076667 0.212195 0.000001 -0.000000 0.899955 0.000001
1.203333 0.212195 0.000000 -0.000000 0.899986 0.000000
1.330000 0.212195 0.000000 -0.000000 0.899999 0.000000
1.456667 0.212195 0.000000 -0.000000 0.899998 0.000000
1.583333 0.212195 0.000001 -0.000000 0.899987 0.000001
1.710000 0.212195 0.000022 -0.000002 0.899571 0.000022
1.836667 0.212195 0.000089 -0.000006 0.898399 0.000089
1.963333 0.212195 0.000151 -0.000008 0.897445 0.000151
2.090000 0.212195 0.000111 -0.000005 0.898194 0.000111
2.216667 0.212195 0.000263 -0.000018 0.895615 0.000264
2.343333 0.212195 0.000852 -0.000103 0.881187 0.000859
2.470000 0.212195 0.002641 -0.000180 0.819704 0.002647
2.596667 0.212195 0.004947 -0.000249 0.750907 0.004953
2.723333 0.212195 0.006710 -0.000249 0.677628 0.006715
2.850000 0.212195 0.002670 0.000658 0.607174 0.002750
2.976667 0.212195 -0.003709 0.000279 0.601397 0.003719
3.103333 0.212195 -0.005661 0.000644 0.602084 0.005697
3.230000 0.212195 -0.007316 0.001902 0.602084 0.007559
3.356667 0.212195 -0.008659 0.003124 0.600218 0.009205
3.483333 0.212195 -0.009194 0.006883 0.602926 0.011486
3.610000 0.212195 -0.004502 0.014930 0.611982 0.015594
3.736667 0.212195 0.000000 0.000000 0.000000 0.000000
0.063333 0.226829 0.000000 0.000000 0.000000 0.000000
0.190000 0.226829 -0.000007 0.000008 0.899584 0.000010
0.316667 0.226829 -0.000382 -0.000057 0.886636 0.000386
0.443333 0.226829 -0.000393 -0.000294 0.879572 0.000491
0.570000 0.226829 -0.000130 -0.000137 0.889234 0.000189
0.696667 0.226829 -0.000078 -0.000104 0.890471 0.000130
0.823333 0.226829 -0.000008 -0.000072 0.892057 0.000073
0.950000 0.226829 0.000025 -0.000026 0.896115 0.000036
1.076667 0.226829 0.000046 -0.000018 0.896693 0.000050
1.203333 0.226829 0.000045 -0.000008 0.898028 0.000046
1.330000 0.226829 0.000016 -0.000001 0.899480 0.000016
1.456667 0.226829 0.000031 -0.000002 0.899153 0.000031
1.583333 0.226829 0.000067 -0.000007 0.898118 0.000067
1.710000 0.226829 0.000640 -0.000096 0.874852 0.000647
1.836667 0.226829 0.001542 -0.000290 0.821494 0.001569
1.963333 0.226829 0.002911 -0.000424 0.767523 0.002942
2.090000 0.226829 0.004476 -0.000467 0.713346 0.004500
2.216667 0.226829 0.005110 -0.000696 0.655371 0.005157
2.343333 0.226829 0.001010 -0.000218 0.604192 0.001033
2.470000 0.226829 -0.003334 -0.000360 0.602754 0.003354
2.596667 0.226829 -0.003792 -0.000197 0.601234 0.003797
2.723333 0.226829 -0.004390 0.000087 0.600635 0.004391
2.850000 0.226829 -0.004249 0.001656 0.600342 0.004560
2.976667 0.226829 -0.004325 0.000686 0.600016 0.004380
3.103333 0.226829 -0.005790 0.000946 0.600025 0.005867
3.230000 0.226829 -0.007438 0.002078 0.600051 0.007723
3.356667 0.226829 -0.008389 0.003096 0.600006 0.008942
3.483333 0.226829 -0.008408 0.006782 0.600199 0.010802
3.610000 0.226829 -0.004098 0.014222 0.601875 0.014800
3.736667 0.226829 0.000000 0.000000 0.000000 0.000000
0.063333 0.241463 0.000000 0.000000 0.000000 0.000000
0.190000 0.241463 -0.000303 0.003215 0.741440 0.003229
0.316667 0.241463 -0.000656 -0.000730 0.755802 0.000981
0.443333 0.241463 -0.000533 -0.001929 0.776435 0.002002
0.570000 0.241463 -0.000646 -0.001251 0.801324 0.001408
0.696667 0.241463 -0.000952 -0.001028 0.808306 0.001401
0.823333 0.241463 -0.000941 -0.000865 0.807819 0.001278
0.950000 0.241463 -0.000900 -0.000643 0.800642 0.001106
1.076667 0.241463 -0.000873 -0.000639 0.781832 0.001082
1.203333 0.241463 -0.000668 -0.000535 0.755569 0.000856
1.330000 0.241463 -0.000251 -0.000323 0.723304 0.000409
1.456667 0.241463 0.000252 -0.000429 0.684666 0.000497
1.583333 0.241463 -0.000866 -0.000450 0.637577 0.000976
1.710000 0.241463 -0.004492 -0.000463 0.607857 0.004516
1.836667 0.241463 -0.005920 -0.001119 0.602223 0.006025
1.963333 0.241463 -0.004527 -0.001013 0.600980 0.004639
2.090000 0.241463 -0.003722 -0.000536 0.601541 0.003760
2.216667 0.241463 -0.003922 -0.000361 0.600691 0.003939
2.343333 0.241463 -0.003823 0.000717 0.600116 0.003889
2.470000 0.241463 -0.003652 0.000097 0.600037 0.003653
2.596667 0.241463 -0.004011 0.000239 0.600015 0.004019
2.723333 0.241463 -0.004500 0.000512 0.600009 0.004529
2.850000 0.241463 -0.004348 0.001766 0.600010 0.004693
2.976667 0.241463 -0.004373 0.000994 0.600000 0.004485
3.103333 0.241463 -0.005686 0.001221 0.600000 0.005815
3.230000 0.241463 -0.007240 0.002232 0.600001 0.007576
3.356667 0.241463 -0.008029 0.003009 0.600000 0.008574
3.483333 0.241463 -0.007720 0.006567 0.600011 0.010135
3.610000 0.241463 -0.003676 0.013171 0.600216 0.013674
3.736667 0.241463 0.000000 0.000000 0.000000 0.000000
0.063333 0.256098 0.000000 0.000000 0.000000 0.000000
0.190000 0.256098 0.003175 0.005020 0.629618 0.005940
0.316667 0.256098 0.005308 -0.001400 0.600474 0.005490
0.443333 0.256098 0.001812 -0.004560 0.600002 0.004907
0.570000 0.256098 -0.001941 -0.003395 0.600000 0.003911
0.696667 0.256098 -0.005302 -0.002964 0.600000 0.006074
0.823333 0.256098 -0.007519 -0.002417 0.600002 0.007898
0.950000 0.256098 -0.008674 -0.001511 0.600077 0.008805
1.076667 0.256098 -0.009181 -0.001208 0.601676 0.009260
1.203333 0.256098 -0.009362 -0.000739 0.603854 0.009392
1.330000 0.256098 -0.008926 -0.000283 0.606608 0.008931
1.456667 0.256098 -0.008646 -0.000258 0.604235 0.008650
1.583333 0.256098 -0.008429 0.000053 0.601700 0.008429
1.710000 0.256098 -0.007789 0.000038 0.600230 0.007789
1.836667 0.256098 -0.006420 -0.001223 0.600011 0.006535
1.963333 0.256098 -0.004587 -0.001104 0.600003 0.004717
2.090000 0.256098 -0.003810 -0.000246 0.600017 0.003818
2.216667 0.256098 -0.004071 0.000078 0.600011 0.004072
2.343333 0.256098 -0.003919 0.000998 0.600003 0.004044
2.470000 0.256098 -0.003700 0.000521 0.600001 0.003737
2.596667 0.256098 -0.004002 0.000628 0.600000 0.004050
2.723333 0.256098 -0.004413 0.000881 0.600000 0.004500
2.850000 0.256098 -0.004312 0.001862 0.600000 0.004696
2.976667 0.256098 -0.004393 0.001249 0.600000 0.004568
3.103333 0.256098 -0.005583 0.001454 0.600000 0.005769
3.230000 0.256098 -0.007046 0.002362 0.600000 0.007431
3.356667 0.256098 -0.007682 0.002889 0.600000 0.008208
3.483333 0.256098 -0.007112 0.006309 0.600000 0.009507
3.610000 0.256098 -0.003308 0.012148 0.600019 0.012591
3.736667 0.256098 0.000000 0.000000 0.000000 0.000000
0.063333 0.270732 0.000000 0.000000 0.000000 0.000000
0.190000 0.270732 0.002331 0.004742 0.603294 0.005284
0.316667 0.270732 0.003777 -0.001142 0.600028 0.003945
0.443333 0.270732 0.001406 -0.004194 0.600000 0.004424
0.570000 0.270732 -0.001951 -0.002837 0.600000 0.003443