TITLE="(Vx,Vy)"
VARIABLES=X,Y,Vx,Vy,Vm,V
ZONE T="T-Dummy" I=30, J=41, F=POINT
0.063333 0.007317 0.000000 0.000000 0.000000 0.000000
0.190000 0.007317 0.000000 0.000000 0.000000 0.000000
0.316667 0.007317 0.000000 0.000000 0.000000 0.000000
0.443333 0.007317 0.000000 0.000000 0.000000 0.000000
0.570000 0.007317 0.000000 0.000000 0.000000 0.000000
0.696667 0.007317 0.000000 0.000000 0.000000 0.000000
0.823333 0.007317 0.000000 0.000000 0.000000 0.000000
0.950000 0.007317 0.000000 0.000000 0.000000 0.000000
1.076667 0.007317 0.000000 0.000000 0.000000 0.000000
1.203333 0.007317 0.000000 0.000000 0.000000 0.000000
1.330000 0.007317 0.000000 0.000000 0.000000 0.000000
1.456667 0.007317 0.000000 0.000000 0.000000 0.000000
1.583333 0.007317 0.000000 0.000000 0.000000 0.000000
1.710000 0.007317 0.000000 0.000000 0.000000 0.000000
1.836667 0.007317 0.000000 0.000000 0.000000 0.000000
1.963333 0.007317 0.000000 0.000000 0.000000 0.000000
2.090000 0.007317 0.000000 0.000000 0.000000 0.000000
2.216667 0.007317 0.000000 0.000000 0.000000 0.000000
2.343333 0.007317 0.000000 0.000000 0.000000 0.000000
2.470000 0.007317 0.000000 0.000000 0.000000 0.000000
2.596667 0.007317 0.000000 0.000000 0.000000 0.000000
2.723333 0.007317 0.000000 0.000000 0.000000 0.000000
2.850000 0.007317 0.000000 0.000000 0.000000 0.000000
2.976667 0.007317 0.000000 0.000000 0.000000 0.000000
3.103333 0.007317 0.000000 0.000000 0.000000 0.000000
3.230000 0.007317 0.000000 0.000000 0.000000 0.000000
3.356667 0.007317 0.000000 0.000000 0.000000 0.000000
3.483333 0.007317 0.000000 0.000000 0.000000 0.000000
3.610000 0.007317 0.000000 0.000000 0.000000 0.000000
3.736667 0.007317 0.000000 0.000000 0.000000 0.000000
0.063333 0.021951 0.000000 0.000000 0.000000 0.000000
0.190000 0.021951 -0.000000 0.000000 0.900000 0.000000
0.316667 0.021951 -0.000000 0.000000 0.900000 0.000000
0.443333 0.021951 -0.000000 -0.000000 0.900000 0.000000
0.570000 0.021951 -0.000000 -0.000000 0.900000 0.000000
0.696667 0.021951 -0.000000 -0.000000 0.900000 0.000000
0.823333 0.021951 0.000000 -0.000000 0.900000 0.000000
0.950000 0.021951 0.000000 -0.000000 0.900000 0.000000
1.076667 0.021951 0.000000 -0.000000 0.900000 0.000000
1.203333 0.021951 0.000000 -0.000000 0.900000 0.000000
1.330000 0.021951 0.000000 0.000000 0.900000 0.000000
1.456667 0.021951 0.000000 0.000000 0.900000 0.000000
1.583333 0.021951 0.000000 0.000000 0.900000 0.000000
1.710000 0.021951 0.000000 0.000000 0.900000 0.000000
1.836667 0.021951 0.000000 0.000000 0.900000 0.000000
1.963333 0.021951 0.000000 0.000000 0.900000 0.000000
2.090000 0.021951 0.000000 0.000000 0.900000 0.000000
2.216667 0.021951 0.000000 0.000000 0.900000 0.000000
2.343333 0.021951 0.000000 0.000000 0.900000 0.000000
2.470000 0.021951 0.000000 0.000000 0.900000 0.000000
2.596667 0.021951 0.000000 0.000000 0.900000 0.000000
2.723333 0.021951 0.000000 0.000000 0.900000 0.000000
2.850000 0.021951 0.000000 0.000000 0.900000 0.000000
2.976667 0.021951 0.000000 0.000000 0.900000 0.000000
3.103333 0.021951 0.000000 0.000000 0.900000 0.000000
3.230000 0.021951 0.000000 0.000000 0.900000 0.000000
3.356667 0.021951 0.000000 0.000000 0.900000 0.000000
3.483333 0.021951 0.000000 0.000000 0.900000 0.000000
3.610000 0.021951 0.000000 0.000000 0.900000 0.000000
3.736667 0.021951 0.000000 0.000000 0.000000 0.000000
0.063333 0.036585 0.000000 0.000000 0.000000 0.000000
0.190000 0.036585 -0.000000 0.000000 0.900000 0.000000
0.316667 0.036585 -0.000000 0.000000 0.900000 0.000000
0.443333 0.036585 -0.000000 -0.000000 0.900000 0.000000
0.570000 0.036585 -0.000000 -0.000000 0.900000 0.000000
0.696667 0.036585 0.000000 -0.000000 0.900000 0.000000
0.823333 0.036585 0.000000 -0.000000 0.900000 0.000000
0.950000 0.036585 0.000000 -0.000000 0.900000 0.000000
1.076667 0.036585 0.000000 -0.000000 0.900000 0.000000
1.203333 0.036585 0.000000 -0.000000 0.900000 0.000000
1.330000 0.036585 0.000000 -0.000000 0.900000 0.000000
1.456667 0.036585 0.000000 -0.000000 0.900000 0.000000
1.583333 0.036585 0.000000 0.000000 0.900000 0.000000
1.710000 0.036585 0.000000 0.000000 0.900000 0.000000
1.836667 0.036585 0.000000 0.000000 0.900000 0.000000
1.963333 0.036585 0.000000 0.000000 0.900000 0.000000
2.090000 0.036585 0.000000 0.000000 0.900000 0.000000
2.216667 0.036585 0.000000 0.000000 0.900000 0.000000
2.343333 0.036585 0.000000 0.000000 0.900000 0.000000
2.470000 0.036585 0.000000 0.000000 0.900000 0.000000
2.596667 0.036585 0.000000 -0.000000 0.900000 0.000000
2.723333 0.036585 0.000000 0.000000 0.900000 0.000000
2.850000 0.036585 0.000000 0.000000 0.900000 0.000000
2.976667 0.036585 0.000000 0.000000 0.900000 0.000000
3.103333 0.036585 0.000000 0.000000 0.900000 0.000000
3.230000 0.036585 0.000000 0.000000 0.900000 0.000000
3.356667 0.036585 0.000000 0.000000 0.900000 0.000000
3.483333 0.036585 0.000000 0.000000 0.900000 0.000000
3.610000 0.036585 0.000000 0.000000 0.900000 0.000000
3.736667 0.036585 0.000000 0.000000 0.000000 0.000000
0.063333 0.051220 0.000000 0.000000 0.000000 0.000000
0.190000 0.051220 -0.000000 0.000000 0.900000 0.000000
0.316667 0.051220 -0.000000 0.000000 0.900000 0.000000
0.443333 0.051220 -0.000000 -0.000000 0.900000 0.000000
0.570000 0.051220 -0.000000 -0.000000 0.900000 0.000000
0.696667 0.051220 0.000000 -0.000000 0.900000 0.000000
0.823333 0.051220 0.000000 -0.000000 0.900000 0.000000
0.950000 0.051220 0.000000 -0.000000 0.900000 0.000000
1.076667 0.051220 0.000000 -0.000000 0.900000 0.000000
1.203333 0.051220 0.000000 -0.000000 0.900000 0.000000
1.330000 0.051220 0.000000 -0.000000 0.900000 0.000000
1.456667 0.051220 0.000000 -0.000000 0.900000 0.000000
1.583333 0.051220 0.000000 -0.000000 0.900000 0.000000
1.710000 0.051220 0.000000 -0.000000 0.900000 0.000000
1.836667 0.051220 0.000000 0.000000 0.900000 0.000000
1.963333 0.051220 0.000000 0.000000 0.900000 0.000000
2.090000 0.051220 0.000000 0.000000 0.900000 0.000000
2.216667 0.051220 0.000000 0.000000 0.900000 0.000000
2.343333 0.051220 0.000000 0.000000 0.900000 0.000000
2.470000 0.051220 0.000000 -0.000000 0.900000 0.000000
2.596667 0.051220 0.000000 -0.000000 0.900000 0.000000
2.723333 0.051220 0.000000 0.000000 0.900000 0.000000
2.850000 0.051220 0.000000 0.000000 0.900000 0.000000
2.976667 0.051220 0.000000 0.000000 0.900000 0.000000
3.103333 0.051220 0.000000 0.000000 0.900000 0.000000
3.230000 0.051220 0.000000 -0.000000 0.900000 0.000000
3.356667 0.051220 0.000000 0.000000 0.900000 0.000000
3.483333 0.051220 0.000000 0.000000 0.900000 0.000000
3.610000 0.051220 0.000000 0.000000 0.900000 0.000000
3.736667 0.051220 0.000000 0.000000 0.000000 0.000000
0.063333 0.065854 0.000000 0.000000 0.000000 0.000000
0.190000 0.065854 -0.000000 0.000000 0.900000 0.000000
0.316667 0.065854 -0.000000 0.000000 0.900000 0.000000
0.443333 0.065854 -0.000000 -0.000000 0.900000 0.000000
0.570000 0.065854 -0.000000 -0.000000 0.900000 0.000000
0.696667 0.065854 -0.000000 -0.000000 0.900000 0.000000
0.823333 0.065854 0.000000 -0.000000 0.900000 0.000000
0.950000 0.065854 0.000000 -0.000000 0.900000 0.000000
1.076667 0.065854 0.000000 -0.000000 0.900000 0.000000
1.203333 0.065854 0.000000 -0.000000 0.900000 0.000000
1.330000 0.065854 0.000000 -0.000000 0.900000 0.000000
1.456667 0.065854 0.000000 -0.000000 0.900000 0.000000
1.583333 0.065854 0.000000 -0.000000 0.900000 0.000000
1.710000 0.065854 0.000000 -0.000000 0.900000 0.000000
1.836667 0.065854 0.000000 -0.000000 0.900000 0.000000
1.963333 0.065854 0.000000 0.000000 0.900000 0.000000
2.090000 0.065854 0.000000 0.000000 0.900000 0.000000
2.216667 0.065854 0.000000 0.000000 0.900000 0.000000
2.343333 0.065854 0.000000 -0.000000 0.900000 0.000000
2.470000 0.065854 0.000000 -0.000000 0.900000 0.000000
2.596667 0.065854 0.000000 -0.000000 0.900000 0.000000
2.723333 0.065854 0.000000 0.000000 0.900000 0.000000
2.850000 0.065854 0.000000 0.000000 0.900000 0.000000
2.976667 0.065854 0.000000 0.000000 0.900000 0.000000
3.103333 0.065854 0.000000 0.000000 0.900000 0.000000
3.230000 0.065854 0.000000 -0.000000 0.900000 0.000000
3.356667 0.065854 0.000000 0.000000 0.900000 0.000000
3.483333 0.065854 0.000000 0.000000 0.900000 0.000000
3.610000 0.065854 0.000000 0.000000 0.900000 0.000000
3.736667 0.065854 0.000000 0.000000 0.000000 0.000000
0.063333 0.080488 0.000000 0.000000 0.000000 0.000000
0.190000 0.080488 -0.000000 0.000000 0.900000 0.000000
0.316667 0.080488 -0.000000 0.000000 0.900000 0.000000
0.443333 0.080488 -0.000000 -0.000000 0.900000 0.000000
0.570000 0.080488 -0.000000 -0.000000 0.900000 0.000000
0.696667 0.080488 -0.000000 -0.000000 0.900000 0.000000
0.823333 0.080488 0.000000 -0.000000 0.900000 0.000000
0.950000 0.080488 0.000000 -0.000000 0.900000 0.000000
1.076667 0.080488 0.000000 -0.000000 0.900000 0.000000
1.203333 0.080488 0.000000 -0.000000 0.900000 0.000000
1.330000 0.080488 0.000000 -0.000000 0.900000 0.000000
1.456667 0.080488 0.000000 -0.000000 0.900000 0.000000
1.583333 0.080488 0.000000 -0.000000 0.900000 0.000000
1.710000 0.080488 0.000000 -0.000000 0.900000 0.000000
1.836667 0.080488 0.000000 -0.000000 0.900000 0.000000
1.963333 0.080488 0.000000 0.000000 0.900000 0.000000
2.090000 0.080488 0.000000 0.000000 0.900000 0.000000
2.216667 0.080488 0.000000 0.000000 0.900000 0.000000
2.343333 0.080488 0.000000 -0.000000 0.900000 0.000000
2.470000 0.080488 0.000000 -0.000000 0.900000 0.000000
2.596667 0.080488 0.000000 -0.000000 0.900000 0.000000
2.723333 0.080488 0.000000 0.000000 0.900000 0.000000
2.850000 0.080488 0.000000 0.000000 0.900000 0.000000
2.976667 0.080488 0.000000 0.000000 0.900000 0.000000
3.103333 0.080488 0.000000 0.000000 0.900000 0.000000
3.230000 0.080488 0.000000 -0.000000 0.900000 0.000000
3.356667 0.080488 0.000000 0.000000 0.900000 0.000000
3.483333 0.080488 0.000000 0.000000 0.900000 0.000000
3.610000 0.080488 0.000000 0.000000 0.900000 0.000000
3.736667 0.080488 0.000000 0.000000 0.000000 0.000000
0.063333 0.095122 0.000000 0.000000 0.000000 0.000000
0.190000 0.095122 -0.000000 0.000000 0.900000 0.000000
0.316667 0.095122 -0.000000 0.000000 0.900000 0.000000
0.443333 0.095122 -0.000000 -0.000000 0.900000 0.000000
0.570000 0.095122 -0.000000 -0.000000 0.900000 0.000000
0.696667 0.095122 -0.000000 -0.000000 0.900000 0.000000
0.823333 0.095122 0.000000 -0.000000 0.900000 0.000000
0.950000 0.095122 0.000000 -0.000000 0.900000 0.000000
1.076667 0.095122 0.000000 -0.000000 0.900000 0.000000
1.203333 0.095122 0.000000 -0.000000 0.900000 0.000000
1.330000 0.095122 0.000000 -0.000000 0.900000 0.000000
1.456667 0.095122 0.000000 -0.000000 0.900000 0.000000
1.583333 0.095122 0.000000 -0.000000 0.900000 0.000000
1.710000 0.095122 0.000000 -0.000000 0.900000 0.000000
1.836667 0.095122 0.000000 -0.000000 0.900000 0.000000
1.963333 0.095122 0.000000 0.000000 0.900000 0.000000
2.090000 0.095122 0.000000 0.000000 0.900000 0.000000
2.216667 0.095122 0.000000 0.000000 0.900000 0.000000
2.343333 0.095122 0.000000 -0.000000 0.900000 0.000000
2.470000 0.095122 0.000000 -0.000000 0.900000 0.000000
2.596667 0.095122 0.000000 -0.000000 0.900000 0.000000
2.723333 0.095122 0.000000 0.000000 0.900000 0.000000
2.850000 0.095122 0.000000 0.000000 0.900000 0.000000
2.976667 0.095122 0.000000 0.000000 0.900000 0.000000
3.103333 0.095122 0.000000 0.000000 0.900000 0.000000
3.230000 0.095122 0.000000 -0.000000 0.900000 0.000000
3.356667 0.095122 0.000000 0.000000 0.900000 0.000000
3.483333 0.095122 0.000000 0.000000 0.900000 0.000000
3.610000 0.095122 0.000000 0.000000 0.900000 0.000000
3.736667 0.095122 0.000000 0.000000 0.000000 0.000000
0.063333 0.109756 0.000000 0.000000 0.000000 0.000000
0.190000 0.109756 -0.000000 0.000000 0.900000 0.000000
0.316667 0.109756 -0.000000 0.000000 0.900000 0.000000
0.443333 0.109756 -0.000000 -0.000000 0.900000 0.000000
0.570000 0.109756 -0.000000 -0.000000 0.900000 0.000000
0.696667 0.109756 -0.000000 -0.000000 0.900000 0.000000
0.823333 0.109756 0.000000 -0.000000 0.900000 0.000000
0.950000 0.109756 0.000000 -0.000000 0.900000 0.000000
1.076667 0.109756 0.000000 -0.000000 0.900000 0.000000
1.203333 0.109756 0.000000 -0.000000 0.900000 0.000000
1.330000 0.109756 0.000000 -0.000000 0.900000 0.000000
1.456667 0.109756 0.000000 -0.000000 0.900000 0.000000
1.583333 0.109756 0.000000 -0.000000 0.900000 0.000000
1.710000 0.109756 0.000000 -0.000000 0.900000 0.000000
1.836667 0.109756 0.000000 -0.000000 0.900000 0.000000
1.963333 0.109756 0.000000 -0.000000 0.900000 0.000000
2.090000 0.109756 0.000000 0.000000 0.900000 0.000000
2.216667 0.109756 0.000000 -0.000000 0.900000 0.000000
2.343333 0.109756 0.000000 -0.000000 0.900000 0.000000
2.470000 0.109756 0.000000 -0.000000 0.900000 0.000000
2.596667 0.109756 0.000000 -0.000000 0.900000 0.000000
2.723333 0.109756 0.000000 -0.000000 0.900000 0.000000
2.850000 0.109756 0.000000 0.000000 0.900000 0.000000
2.976667 0.109756 0.000000 0.000000 0.900000 0.000000
3.103333 0.109756 0.000000 0.000000 0.900000 0.000000
3.230000 0.109756 0.000000 -0.000000 0.900000 0.000000
3.356667 0.109756 0.000000 0.000000 0.900000 0.000000
3.483333 0.109756 0.000000 0.000000 0.900000 0.000000
3.610000 0.109756 0.000000 0.000000 0.900000 0.000000
3.736667 0.109756 0.000000 0.000000 0.000000 0.000000
0.063333 0.124390 0.000000 0.000000 0.000000 0.000000
0.190000 0.124390 -0.000000 0.000000 0.900000 0.000000
0.316667 0.124390 -0.000000 0.000000 0.900000 0.000000
0.443333 0.124390 -0.000000 -0.000000 0.900000 0.000000
0.570000 0.124390 -0.000000 -0.000000 0.900000 0.000000
0.696667 0.124390 -0.000000 -0.000000 0.900000 0.000000
0.823333 0.124390 0.000000 -0.000000 0.900000 0.000000
0.950000 0.124390 0.000000 -0.000000 0.900000 0.000000
1.076667 0.124390 0.000000 -0.000000 0.900000 0.000000
1.203333 0.124390 0.000000 -0.000000 0.900000 0.000000
1.330000 0.124390 0.000000 -0.000000 0.900000 0.000000
1.456667 0.124390 0.000000 -0.000000 0.900000 0.000000
1.583333 0.124390 0.000000 -0.000000 0.900000 0.000000
1.710000 0.124390 0.000000 -0.000000 0.900000 0.000000
1.836667 0.124390 0.000000 -0.000000 0.900000 0.000000
1.963333 0.124390 0.000000 -0.000000 0.900000 0.000000
2.090000 0.124390 0.000000 0.000000 0.900000 0.000000
2.216667 0.124390 0.000000 -0.000000 0.900000 0.000000
2.343333 0.124390 0.000000 -0.000000 0.900000 0.000000
2.470000 0.124390 0.000000 -0.000000 0.900000 0.000000
2.596667 0.124390 0.000000 -0.000000 0.900000 0.000000
2.723333 0.124390 0.000000 -0.000000 0.900000 0.000000
2.850000 0.124390 0.000000 0.000000 0.900000 0.000000
2.976667 0.124390 0.000000 0.000000 0.900000 0.000000
3.103333 0.124390 0.000000 0.000000 0.900000 0.000000
3.230000 0.124390 0.000000 -0.000000 0.900000 0.000000
3.356667 0.124390 0.000000 0.000000 0.900000 0.000000
3.483333 0.124390 0.000000 0.000000 0.900000 0.000000
3.610000 0.124390 0.000000 0.000000 0.900000 0.000000
3.736667 0.124390 0.000000 0.000000 0.000000 0.000000
0.063333 0.139024 0.000000 0.000000 0.000000 0.000000
0.190000 0.139024 -0.000000 0.000000 0.900000 0.000000
0.316667 0.139024 -0.000000 0.000000 0.900000 0.000000
0.443333 0.139024 -0.000000 -0.000000 0.900000 0.000000
0.570000 0.139024 -0.000000 -0.000000 0.900000 0.000000
0.696667 0.139024 -0.000000 -0.000000 0.900000 0.000000
0.823333 0.139024 -0.000000 -0.000000 0.900000 0.000000
0.950000 0.139024 0.000000 -0.000000 0.900000 0.000000
1.076667 0.139024 0.000000 -0.000000 0.900000 0.000000
1.203333 0.139024 0.000000 -0.000000 0.900000 0.000000
1.330000 0.139024 0.000000 -0.000000 0.900000 0.000000
1.456667 0.139024 0.000000 -0.000000 0.900000 0.000000
1.583333 0.139024 0.000000 -0.000000 0.900000 0.000000
1.710000 0.139024 0.000000 -0.000000 0.900000 0.000000
1.836667 0.139024 0.000000 -0.000000 0.900000 0.000000
1.963333 0.139024 0.000000 -0.000000 0.900000 0.000000
2.090000 0.139024 0.000000 -0.000000 0.900000 0.000000
2.216667 0.139024 0.000000 -0.000000 0.900000 0.000000
2.343333 0.139024 0.000000 -0.000000 0.900000 0.000000
2.470000 0.139024 0.000000 -0.000000 0.900000 0.000000
2.596667 0.139024 0.000000 -0.000000 0.900000 0.000000
2.723333 0.139024 0.000000 -0.000000 0.900000 0.000000
2.850000 0.139024 0.000000 0.000000 0.900000 0.000000
2.976667 0.139024 0.000000 0.000000 0.900000 0.000000
3.103333 0.139024 0.000000 0.000000 0.900000 0.000000
3.230000 0.139024 0.000000 -0.000000 0.900000 0.000000
3.356667 0.139024 0.000000 0.000000 0.900000 0.000000
3.483333 0.139024 0.000000 0.000000 0.900000 0.000000
3.610000 0.139024 0.000000 0.000000 0.900000 0.000000
3.736667 0.139024 0.000000 0.000000 0.000000 0.000000
0.063333 0.153659 0.000000 0.000000 0.000000 0.000000
0.190000 0.153659 -0.000000 0.000000 0.900000 0.000000
0.316667 0.153659 -0.000000 0.000000 0.900000 0.000000
0.443333 0.153659 -0.000000 -0.000000 0.900000 0.000000
0.570000 0.153659 -0.000000 -0.000000 0.900000 0.000000
0.696667 0.153659 -0.000000 -0.000000 0.900000 0.000000
0.823333 0.153659 -0.000000 -0.000000 0.900000 0.000000
0.950000 0.153659 0.000000 -0.000000 0.900000 0.000000
1.076667 0.153659 0.000000 -0.000000 0.900000 0.000000
1.203333 0.153659 0.000000 -0.000000 0.900000 0.000000
1.330000 0.153659 0.000000 -0.000000 0.900000 0.000000
1.456667 0.153659 0.000000 -0.000000 0.900000 0.000000
1.583333 0.153659 0.000000 -0.000000 0.900000 0.000000
1.710000 0.153659 0.000000 -0.000000 0.900000 0.000000
1.836667 0.153659 0.000000 -0.000000 0.900000 0.000000
1.963333 0.153659 0.000000 -0.000000 0.900000 0.000000
2.090000 0.153659 0.000000 -0.000000 0.900000 0.000000
2.216667 0.153659 0.000000 -0.000000 0.900000 0.000000
2.343333 0.153659 0.000000 -0.000000 0.900000 0.000000
2.470000 0.153659 0.000000 -0.000000 0.900000 0.000000
2.596667 0.153659 0.000000 -0.000000 0.900000 0.000000
2.723333 0.153659 0.000000 -0.000000 0.900000 0.000000
2.850000 0.153659 0.000000 0.000000 0.900000 0.000000
2.976667 0.153659 0.000000 0.000000 0.900000 0.000000
3.103333 0.153659 0.000000 0.000000 0.900000 0.000000
3.230000 0.153659 0.000000 -0.000000 0.900000 0.000000
3.356667 0.153659 0.000000 0.000000 0.900000 0.000000
3.483333 0.153659 0.000000 0.000000 0.900000 0.000000
3.610000 0.153659 0.000000 0.000000 0.900000 0.000000
3.736667 0.153659 0.000000 0.000000 0.000000 0.000000
0.063333 0.168293 0.000000 0.000000 0.000000 0.000000
0.190000 0.168293 -0.000000 0.000000 0.900000 0.000000
0.316667 0.168293 -0.000000 0.000000 0.900000 0.000000
0.443333 0.168293 -0.000000 -0.000000 0.900000 0.000000
0.570000 0.168293 -0.000000 -0.000000 0.900000 0.000000
0.696667 0.168293 -0.000000 -0.000000 0.900000 0.000000
0.823333 0.168293 -0.000000 -0.000000 0.900000 0.000000
0.950000 0.168293 0.000000 -0.000000 0.900000 0.000000
1.076667 0.168293 0.000000 -0.000000 0.900000 0.000000
1.203333 0.168293 0.000000 -0.000000 0.900000 0.000000
1.330000 0.168293 0.000000 -0.000000 0.900000 0.000000
1.456667 0.168293 0.000000 -0.000000 0.900000 0.000000
1.583333 0.168293 0.000000 -0.000000 0.900000 0.000000
1.710000 0.168293 0.000000 -0.000000 0.900000 0.000000
1.836667 0.168293 0.000000 -0.000000 0.900000 0.000000
1.963333 0.168293 0.000000 -0.000000 0.900000 0.000000
2.090000 0.168293 0.000000 -0.000000 0.900000 0.000000
2.216667 0.168293 0.000000 -0.000000 0.900000 0.000000
2.343333 0.168293 0.000000 -0.000000 0.900000 0.000000
2.470000 0.168293 0.000000 -0.000000 0.900000 0.000000
2.596667 0.168293 0.000000 -0.000000 0.900000 0.000000
2.723333 0.168293 0.000000 -0.000000 0.900000 0.000000
2.850000 0.168293 0.000000 0.000000 0.900000 0.000000
2.976667 0.168293 0.000000 0.000000 0.900000 0.000000
3.103333 0.168293 0.000000 -0.000000 0.900000 0.000000
3.230000 0.168293 0.000001 -0.000000 0.899988 0.000001
3.356667 0.168293 0.000000 0.000000 0.899995 0.000000
3.483333 0.168293 0.000000 0.000000 0.900000 0.000000
3.610000 0.168293 0.000000 0.000000 0.900000 0.000000
3.736667 0.168293 0.000000 0.000000 0.000000 0.000000
0.063333 0.182927 0.000000 0.000000 0.000000 0.000000
0.190000 0.182927 -0.000000 0.000000 0.900000 0.000000
0.316667 0.182927 -0.000000 0.000000 0.900000 0.000000
0.443333 0.182927 -0.000000 -0.000000 0.899998 0.000000
0.570000 0.182927 -0.000000 -0.000000 0.899999 0.000000
0.696667 0.182927 -0.000000 -0.000000 0.899999 0.000000
0.823333 0.182927 -0.000000 -0.000000 0.900000 0.000000
0.950000 0.182927 0.000000 -0.000000 0.900000 0.000000
1.076667 0.182927 0.000000 -0.000000 0.900000 0.000000
1.203333 0.182927 0.000000 -0.000000 0.900000 0.000000
1.330000 0.182927 0.000000 -0.000000 0.900000 0.000000
1.456667 0.182927 0.000000 -0.000000 0.900000 0.000000
1.583333 0.182927 0.000000 -0.000000 0.900000 0.000000
1.710000 0.182927 0.000000 -0.000000 0.900000 0.000000
1.836667 0.182927 0.000000 -0.000000 0.900000 0.000000
1.963333 0.182927 0.000000 -0.000000 0.900000 0.000000
2.090000 0.182927 0.000000 -0.000000 0.900000 0.000000
2.216667 0.182927 0.000000 -0.000000 0.900000 0.000000
2.343333 0.182927 0.000000 -0.000000 0.899999 0.000000
2.470000 0.182927 0.000000 -0.000000 0.899999 0.000000
2.596667 0.182927 0.000001 -0.000000 0.899985 0.000001
2.723333 0.182927 0.000001 -0.000000 0.899974 0.000001
2.850000 0.182927 0.000002 -0.000000 0.899966 0.000002
2.976667 0.182927 0.000003 0.000000 0.899953 0.000003
3.103333 0.182927 0.000003 -0.000000 0.899946 0.000003
3.230000 0.182927 0.000036 -0.000002 0.899340 0.000036
3.356667 0.182927 0.000054 0.000003 0.899001 0.000054
3.483333 0.182927 0.000002 0.000001 0.899949 0.000003
3.610000 0.182927 0.000000 0.000001 0.899984 0.000001
3.736667 0.182927 0.000000 0.000000 0.000000 0.000000
0.063333 0.197561 0.000000 0.000000 0.000000 0.000000
0.190000 0.197561 -0.000000 0.000000 0.900000 0.000000
0.316667 0.197561 -0.000000 0.000000 0.899998 0.000000
0.443333 0.197561 -0.000001 -0.000000 0.899935 0.000001
0.570000 0.197561 -0.000000 -0.000000 0.899973 0.000000
0.696667 0.197561 -0.000000 -0.000000 0.899965 0.000000
0.823333 0.197561 -0.000000 -0.000000 0.899979 0.000000
0.950000 0.197561 0.000000 -0.000000 0.899994 0.000000
1.076667 0.197561 0.000000 -0.000000 0.899996 0.000000
1.203333 0.197561 0.000000 -0.000000 0.899998 0.000000
1.330000 0.197561 0.000000 -0.000000 0.900000 0.000000
1.456667 0.197561 0.000000 -0.000000 0.900000 0.000000
1.583333 0.197561 0.000000 -0.000000 0.899999 0.000000
1.710000 0.197561 0.000000 -0.000000 0.899999 0.000000
1.836667 0.197561 0.000000 -0.000000 0.899995 0.000000
1.963333 0.197561 0.000000 -0.000000 0.899997 0.000000
2.090000 0.197561 0.000000 -0.000000 0.899994 0.000000
2.216667 0.197561 0.000001 -0.000000 0.899968 0.000001
2.343333 0.197561 0.000002 -0.000000 0.899942 0.000002
2.470000 0.197561 0.000004 -0.000000 0.899904 0.000004
2.596667 0.197561 0.000027 -0.000002 0.899431 0.000027
2.723333 0.197561 0.000070 -0.000002 0.898635 0.000070
2.850000 0.197561 0.000119 -0.000001 0.897749 0.000119
2.976667 0.197561 0.000196 -0.000001 0.896338 0.000196
3.103333 0.197561 0.000238 -0.000003 0.895368 0.000238
3.230000 0.197561 0.000561 -0.000034 0.883589 0.000562
3.356667 0.197561 0.001216 0.000191 0.827247 0.001231
3.483333 0.197561 0.001592 0.001924 0.769721 0.002498
3.610000 0.197561 0.000834 0.005611 0.747921 0.005672
3.736667 0.197561 0.000000 0.000000 0.000000 0.000000
0.063333 0.212195 0.000000 0.000000 0.000000 0.000000
0.190000 0.212195 -0.000000 0.000000 0.899990 0.000000
0.316667 0.212195 -0.000007 0.000000 0.899780 0.000007
0.443333 0.212195 -0.000039 -0.000010 0.898248 0.000040
0.570000 0.212195 -0.000013 -0.000007 0.899201 0.000015
0.696667 0.212195 -0.000010 -0.000007 0.899077 0.000012
0.823333 0.212195 -0.000002 -0.000004 0.899369 0.000004
0.950000 0.212195 0.000001 -0.000001 0.899755 0.000001
1.076667 0.212195 0.000002 -0.000001 0.899798 0.000002
1.203333 0.212195 0.000002 -0.000000 0.899872 0.000002
1.330000 0.212195 0.000001 -0.000000 0.899966 0.000001
1.456667 0.212195 0.000001 -0.000000 0.899955 0.000001
1.583333 0.212195 0.000002 -0.000000 0.899931 0.000002
1.710000 0.212195 0.000003 -0.000000 0.899909 0.000003
1.836667 0.212195 0.000018 -0.000002 0.899476 0.000018
1.963333 0.212195 0.000024 -0.000001 0.899346 0.000024
2.090000 0.212195 0.000033 -0.000001 0.899119 0.000033
2.216667 0.212195 0.000091 -0.000003 0.897670 0.000091
2.343333 0.212195 0.000140 -0.000004 0.896523 0.000140
2.470000 0.212195 0.000183 -0.000009 0.895243 0.000183
2.596667 0.212195 0.000512 -0.000063 0.881125 0.000516
2.723333 0.212195 0.001355 -0.000089 0.829895 0.001358
2.850000 0.212195 0.002799 -0.000073 0.775113 0.002800
2.976667 0.212195 0.004580 -0.000097 0.718324 0.004581
3.103333 0.212195 0.005574 -0.000070 0.658817 0.005574
3.230000 0.212195 0.001254 0.000658 0.606381 0.001416
3.356667 0.212195 -0.005124 0.001002 0.601503 0.005221
3.483333 0.212195 -0.006543 0.004069 0.617594 0.007705
3.610000 0.212195 -0.003036 0.009272 0.640127 0.009757
3.736667 0.212195 0.000000 0.000000 0.000000 0.000000
0.063333 0.226829 0.000000 0.000000 0.000000 0.000000
0.190000 0.226829 -0.000130 0.001376 0.857319 0.001383
0.316667 0.226829 -0.000145 0.000017 0.892367 0.000146
0.443333 0.226829 -0.000682 -0.000201 0.870967 0.000711
0.570000 0.226829 -0.000247 -0.000131 0.883800 0.000280
0.696667 0.226829 -0.000195 -0.000131 0.883159 0.000235
0.823333 0.226829 -0.000036 -0.000087 0.886856 0.000094
0.950000 0.226829 0.000033 -0.000029 0.893351 0.000044
1.076667 0.226829 0.000068 -0.000025 0.893963 0.000073
1.203333 0.226829 0.000088 -0.000014 0.895160 0.000089
1.330000 0.226829 0.000057 -0.000004 0.897499 0.000057
1.456667 0.226829 0.000079 -0.000006 0.896894 0.000079
1.583333 0.226829 0.000118 -0.000010 0.895792 0.000118
1.710000 0.226829 0.000113 -0.000015 0.895319 0.000114
1.836667 0.226829 0.000389 -0.000072 0.874678 0.000396
1.963333 0.226829 0.000787 -0.000099 0.835412 0.000793
2.090000 0.226829 0.001571 -0.000106 0.791190 0.001575
2.216667 0.226829 0.002838 -0.000202 0.746011 0.002845
2.343333 0.226829 0.004439 -0.000257 0.699258 0.004447
2.470000 0.226829 0.005473 -0.000251 0.648546 0.005479
2.596667 0.226829 0.002715 -0.000045 0.605950 0.002715
2.723333 0.226829 -0.000809 -0.000235 0.603086 0.000842
2.850000 0.226829 -0.001288 -0.000112 0.602290 0.001292
2.976667 0.226829 -0.001707 -0.000086 0.600928 0.001709
3.103333 0.226829 -0.002638 0.000118 0.600447 0.002641
3.230000 0.226829 -0.003716 0.001386 0.600111 0.003966
3.356667 0.226829 -0.005001 0.001251 0.600014 0.005155
3.483333 0.226829 -0.005877 0.004214 0.601006 0.007232
3.610000 0.226829 -0.002912 0.009581 0.606590 0.010014
3.736667 0.226829 0.000000 0.000000 0.000000 0.000000
0.063333 0.241463 0.000000 0.000000 0.000000 0.000000
0.190000 0.241463 0.002695 0.006510 0.688290 0.007046
0.316667 0.241463 0.002589 0.001451 0.637114 0.002968
0.443333 0.241463 -0.000445 -0.001807 0.681642 0.001861
0.570000 0.241463 -0.000474 -0.001379 0.709735 0.001458
0.696667 0.241463 -0.001082 -0.001316 0.728584 0.001703
0.823333 0.241463 -0.000761 -0.001056 0.739493 0.001301
0.950000 0.241463 -0.000427 -0.000633 0.741863 0.000763
1.076667 0.241463 -0.000115 -0.000617 0.738731 0.000628
1.203333 0.241463 0.000258 -0.000434 0.727881 0.000505
1.330000 0.241463 0.000677 -0.000219 0.711137 0.000712
1.456667 0.241463 0.001150 -0.000377 0.688323 0.001210
1.583333 0.241463 0.001970 -0.000595 0.657980 0.002058
1.710000 0.241463 0.001723 -0.000539 0.620712 0.001805
1.836667 0.241463 -0.000495 -0.000528 0.602783 0.000723
1.963333 0.241463 -0.001628 -0.000424 0.600975 0.001682
2.090000 0.241463 -0.001255 -0.000260 0.602952 0.001282
2.216667 0.241463 -0.000806 -0.000333 0.603347 0.000872
2.343333 0.241463 -0.000927 -0.000257 0.602411 0.000962
2.470000 0.241463 -0.001273 -0.000040 0.601201 0.001273
2.596667 0.241463 -0.001117 0.000533 0.600179 0.001238
2.723333 0.241463 -0.001082 0.000010 0.600072 0.001082
2.850000 0.241463 -0.001416 0.000068 0.600049 0.001418
2.976667 0.241463 -0.001804 0.000106 0.600015 0.001807
3.103333 0.241463 -0.002624 0.000324 0.600007 0.002644
3.230000 0.241463 -0.003620 0.001429 0.600001 0.003892
3.356667 0.241463 -0.004703 0.001361 0.600000 0.004896
3.483333 0.241463 -0.005213 0.004108 0.600041 0.006637
3.610000 0.241463 -0.002531 0.008986 0.600727 0.009336
3.736667 0.241463 0.000000 0.000000 0.000000 0.000000
0.063333 0.256098 0.000000 0.000000 0.000000 0.000000
0.190000 0.256098 0.003378 0.007834 0.616342 0.008531
0.316667 0.256098 0.007262 0.002093 0.601164 0.007558
0.443333 0.256098 0.006024 -0.002483 0.600009 0.006515
0.570000 0.256098 0.002811 -0.001725 0.600000 0.003298
0.696667 0.256098 -0.000127 -0.001980 0.600000 0.001984
0.823333 0.256098 -0.002035 -0.001670 0.600027 0.002632
0.950000 0.256098 -0.002917 -0.000943 0.602455 0.003065
1.076667 0.256098 -0.003371 -0.000875 0.603192 0.003483
1.203333 0.256098 -0.003854 -0.000511 0.604325 0.003887
1.330000 0.256098 -0.003811 -0.000184 0.605902 0.003815
1.456667 0.256098 -0.003768 -0.000366 0.604391 0.003786
1.583333 0.256098 -0.003813 -0.000635 0.602221 0.003866
1.710000 0.256098 -0.003037 -0.000414 0.600610 0.003065
1.836667 0.256098 -0.002154 -0.000352 0.600021 0.002182
1.963333 0.256098 -0.001642 -0.000397 0.600002 0.001690
2.090000 0.256098 -0.001143 -0.000161 0.600055 0.001154
2.216667 0.256098 -0.000893 -0.000183 0.600097 0.000911
2.343333 0.256098 -0.001071 -0.000036 0.600080 0.001071
2.470000 0.256098 -0.001355 0.000179 0.600042 0.001367
2.596667 0.256098 -0.001178 0.000619 0.600005 0.001331
2.723333 0.256098 -0.001124 0.000194 0.600002 0.001140
2.850000 0.256098 -0.001433 0.000222 0.600001 0.001450
2.976667 0.256098 -0.001812 0.000266 0.600000 0.001832
3.103333 0.256098 -0.002547 0.000492 0.600000 0.002594
3.230000 0.256098 -0.003478 0.001466 0.600000 0.003774
3.356667 0.256098 -0.004424 0.001428 0.600000 0.004649
3.483333 0.256098 -0.004704 0.003954 0.600001 0.006146
3.610000 0.256098 -0.002238 0.008304 0.600058 0.008600
3.736667 0.256098 0.000000 0.000000 0.000000 0.000000
0.063333 0.270732 0.000000 0.000000 0.000000 0.000000
0.190000 0.270732 0.002923 0.007420 0.601894 0.007975
0.316667 0.270732 0.006237 0.001976 0.600032 0.006543
0.443333 0.270732 0.005484 -0.002222 0.600000 0.005917
0.570000 0.270732 0.002648 -0.001233 0.600000 0.002920