TITLE="(Vx,Vy)"
VARIABLES=X,Y,Vx,Vy,Vm,V
ZONE T="T-Dummy" I=30, J=41, F=POINT
0.063333 0.007317 0.000000 0.000000 0.000000 0.000000
0.190000 0.007317 0.000000 0.000000 0.000000 0.000000
0.316667 0.007317 0.000000 0.000000 0.000000 0.000000
0.443333 0.007317 0.000000 0.000000 0.000000 0.000000
0.570000 0.007317 0.000000 0.000000 0.000000 0.000000
0.696667 0.007317 0.000000 0.000000 0.000000 0.000000
0.823333 0.007317 0.000000 0.000000 0.000000 0.000000
0.950000 0.007317 0.000000 0.000000 0.000000 0.000000
1.076667 0.007317 0.000000 0.000000 0.000000 0.000000
1.203333 0.007317 0.000000 0.000000 0.000000 0.000000
1.330000 0.007317 0.000000 0.000000 0.000000 0.000000
1.456667 0.007317 0.000000 0.000000 0.000000 0.000000
1.583333 0.007317 0.000000 0.000000 0.000000 0.000000
1.710000 0.007317 0.000000 0.000000 0.000000 0.000000
1.836667 0.007317 0.000000 0.000000 0.000000 0.000000
1.963333 0.007317 0.000000 0.000000 0.000000 0.000000
2.090000 0.007317 0.000000 0.000000 0.000000 0.000000
2.216667 0.007317 0.000000 0.000000 0.000000 0.000000
2.343333 0.007317 0.000000 0.000000 0.000000 0.000000
2.470000 0.007317 0.000000 0.000000 0.000000 0.000000
2.596667 0.007317 0.000000 0.000000 0.000000 0.000000
2.723333 0.007317 0.000000 0.000000 0.000000 0.000000
2.850000 0.007317 0.000000 0.000000 0.000000 0.000000
2.976667 0.007317 0.000000 0.000000 0.000000 0.000000
3.103333 0.007317 0.000000 0.000000 0.000000 0.000000
3.230000 0.007317 0.000000 0.000000 0.000000 0.000000
3.356667 0.007317 0.000000 0.000000 0.000000 0.000000
3.483333 0.007317 0.000000 0.000000 0.000000 0.000000
3.610000 0.007317 0.000000 0.000000 0.000000 0.000000
3.736667 0.007317 0.000000 0.000000 0.000000 0.000000
0.063333 0.021951 0.000000 0.000000 0.000000 0.000000
0.190000 0.021951 -0.000000 0.000000 0.900000 0.000000
0.316667 0.021951 -0.000000 0.000000 0.900000 0.000000
0.443333 0.021951 -0.000000 0.000000 0.900000 0.000000
0.570000 0.021951 -0.000000 0.000000 0.900000 0.000000
0.696667 0.021951 -0.000000 -0.000000 0.900000 0.000000
0.823333 0.021951 -0.000000 -0.000000 0.900000 0.000000
0.950000 0.021951 -0.000000 -0.000000 0.900000 0.000000
1.076667 0.021951 -0.000000 -0.000000 0.900000 0.000000
1.203333 0.021951 -0.000000 -0.000000 0.900000 0.000000
1.330000 0.021951 -0.000000 -0.000000 0.900000 0.000000
1.456667 0.021951 -0.000000 -0.000000 0.900000 0.000000
1.583333 0.021951 -0.000000 -0.000000 0.900000 0.000000
1.710000 0.021951 -0.000000 -0.000000 0.900000 0.000000
1.836667 0.021951 0.000000 0.000000 0.900000 0.000000
1.963333 0.021951 -0.000000 0.000000 0.900000 0.000000
2.090000 0.021951 -0.000000 0.000000 0.900000 0.000000
2.216667 0.021951 -0.000000 -0.000000 0.900000 0.000000
2.343333 0.021951 -0.000000 -0.000000 0.900000 0.000000
2.470000 0.021951 -0.000000 -0.000000 0.900000 0.000000
2.596667 0.021951 -0.000000 -0.000000 0.900000 0.000000
2.723333 0.021951 -0.000000 -0.000000 0.900000 0.000000
2.850000 0.021951 -0.000000 -0.000000 0.900000 0.000000
2.976667 0.021951 -0.000000 -0.000000 0.900000 0.000000
3.103333 0.021951 -0.000000 -0.000000 0.900000 0.000000
3.230000 0.021951 -0.000000 -0.000000 0.900000 0.000000
3.356667 0.021951 -0.000000 -0.000000 0.900000 0.000000
3.483333 0.021951 -0.000000 -0.000000 0.900000 0.000000
3.610000 0.021951 -0.000000 -0.000000 0.900000 0.000000
3.736667 0.021951 0.000000 0.000000 0.000000 0.000000
0.063333 0.036585 0.000000 0.000000 0.000000 0.000000
0.190000 0.036585 -0.000000 0.000000 0.900000 0.000000
0.316667 0.036585 -0.000000 0.000000 0.900000 0.000000
0.443333 0.036585 -0.000000 0.000000 0.900000 0.000000
0.570000 0.036585 -0.000000 -0.000000 0.900000 0.000000
0.696667 0.036585 -0.000000 -0.000000 0.900000 0.000000
0.823333 0.036585 -0.000000 -0.000000 0.900000 0.000000
0.950000 0.036585 -0.000000 -0.000000 0.900000 0.000000
1.076667 0.036585 -0.000000 -0.000000 0.900000 0.000000
1.203333 0.036585 -0.000000 -0.000000 0.900000 0.000000
1.330000 0.036585 -0.000000 -0.000000 0.900000 0.000000
1.456667 0.036585 -0.000000 -0.000000 0.900000 0.000000
1.583333 0.036585 -0.000000 -0.000000 0.900000 0.000000
1.710000 0.036585 -0.000000 -0.000000 0.900000 0.000000
1.836667 0.036585 -0.000000 0.000000 0.900000 0.000000
1.963333 0.036585 0.000000 0.000000 0.900000 0.000000
2.090000 0.036585 -0.000000 0.000000 0.900000 0.000000
2.216667 0.036585 -0.000000 0.000000 0.900000 0.000000
2.343333 0.036585 -0.000000 0.000000 0.900000 0.000000
2.470000 0.036585 -0.000000 0.000000 0.900000 0.000000
2.596667 0.036585 -0.000000 0.000000 0.900000 0.000000
2.723333 0.036585 -0.000000 0.000000 0.900000 0.000000
2.850000 0.036585 -0.000000 -0.000000 0.900000 0.000000
2.976667 0.036585 -0.000000 -0.000000 0.900000 0.000000
3.103333 0.036585 -0.000000 0.000000 0.900000 0.000000
3.230000 0.036585 -0.000000 -0.000000 0.900000 0.000000
3.356667 0.036585 -0.000000 -0.000000 0.900000 0.000000
3.483333 0.036585 -0.000000 -0.000000 0.900000 0.000000
3.610000 0.036585 -0.000000 -0.000000 0.900000 0.000000
3.736667 0.036585 0.000000 0.000000 0.000000 0.000000
0.063333 0.051220 0.000000 0.000000 0.000000 0.000000
0.190000 0.051220 -0.000000 0.000000 0.900000 0.000000
0.316667 0.051220 -0.000000 0.000000 0.900000 0.000000
0.443333 0.051220 -0.000000 0.000000 0.900000 0.000000
0.570000 0.051220 -0.000000 -0.000000 0.900000 0.000000
0.696667 0.051220 -0.000000 -0.000000 0.900000 0.000000
0.823333 0.051220 -0.000000 -0.000000 0.900000 0.000000
0.950000 0.051220 -0.000000 -0.000000 0.900000 0.000000
1.076667 0.051220 -0.000000 -0.000000 0.900000 0.000000
1.203333 0.051220 -0.000000 -0.000000 0.900000 0.000000
1.330000 0.051220 -0.000000 -0.000000 0.900000 0.000000
1.456667 0.051220 -0.000000 -0.000000 0.900000 0.000000
1.583333 0.051220 -0.000000 -0.000000 0.900000 0.000000
1.710000 0.051220 -0.000000 -0.000000 0.900000 0.000000
1.836667 0.051220 -0.000000 0.000000 0.900000 0.000000
1.963333 0.051220 0.000000 0.000000 0.900000 0.000000
2.090000 0.051220 -0.000000 0.000000 0.900000 0.000000
2.216667 0.051220 -0.000000 0.000000 0.900000 0.000000
2.343333 0.051220 -0.000000 0.000000 0.900000 0.000000
2.470000 0.051220 -0.000000 0.000000 0.900000 0.000000
2.596667 0.051220 -0.000000 0.000000 0.900000 0.000000
2.723333 0.051220 -0.000000 0.000000 0.900000 0.000000
2.850000 0.051220 -0.000000 0.000000 0.900000 0.000000
2.976667 0.051220 -0.000000 0.000000 0.900000 0.000000
3.103333 0.051220 -0.000000 0.000000 0.900000 0.000000
3.230000 0.051220 -0.000000 -0.000000 0.900000 0.000000
3.356667 0.051220 -0.000000 -0.000000 0.900000 0.000000
3.483333 0.051220 -0.000000 -0.000000 0.900000 0.000000
3.610000 0.051220 -0.000000 -0.000000 0.900000 0.000000
3.736667 0.051220 0.000000 0.000000 0.000000 0.000000
0.063333 0.065854 0.000000 0.000000 0.000000 0.000000
0.190000 0.065854 -0.000000 0.000000 0.900000 0.000000
0.316667 0.065854 -0.000000 0.000000 0.900000 0.000000
0.443333 0.065854 -0.000000 0.000000 0.900000 0.000000
0.570000 0.065854 -0.000000 -0.000000 0.900000 0.000000
0.696667 0.065854 -0.000000 -0.000000 0.900000 0.000000
0.823333 0.065854 -0.000000 -0.000000 0.900000 0.000000
0.950000 0.065854 -0.000000 -0.000000 0.900000 0.000000
1.076667 0.065854 -0.000000 -0.000000 0.900000 0.000000
1.203333 0.065854 -0.000000 -0.000000 0.900000 0.000000
1.330000 0.065854 -0.000000 -0.000000 0.900000 0.000000
1.456667 0.065854 -0.000000 -0.000000 0.900000 0.000000
1.583333 0.065854 -0.000000 -0.000000 0.900000 0.000000
1.710000 0.065854 -0.000000 -0.000000 0.900000 0.000000
1.836667 0.065854 -0.000000 -0.000000 0.900000 0.000000
1.963333 0.065854 0.000000 0.000000 0.900000 0.000000
2.090000 0.065854 -0.000000 0.000000 0.900000 0.000000
2.216667 0.065854 -0.000000 0.000000 0.900000 0.000000
2.343333 0.065854 -0.000000 0.000000 0.900000 0.000000
2.470000 0.065854 -0.000000 0.000000 0.900000 0.000000
2.596667 0.065854 -0.000000 0.000000 0.900000 0.000000
2.723333 0.065854 -0.000000 0.000000 0.900000 0.000000
2.850000 0.065854 -0.000000 0.000000 0.900000 0.000000
2.976667 0.065854 -0.000000 0.000000 0.900000 0.000000
3.103333 0.065854 -0.000000 0.000000 0.900000 0.000000
3.230000 0.065854 -0.000000 -0.000000 0.900000 0.000000
3.356667 0.065854 -0.000000 -0.000000 0.900000 0.000000
3.483333 0.065854 -0.000000 -0.000000 0.900000 0.000000
3.610000 0.065854 -0.000000 -0.000000 0.900000 0.000000
3.736667 0.065854 0.000000 0.000000 0.000000 0.000000
0.063333 0.080488 0.000000 0.000000 0.000000 0.000000
0.190000 0.080488 -0.000000 0.000000 0.900000 0.000000
0.316667 0.080488 -0.000000 0.000000 0.900000 0.000000
0.443333 0.080488 -0.000000 0.000000 0.900000 0.000000
0.570000 0.080488 -0.000000 -0.000000 0.900000 0.000000
0.696667 0.080488 -0.000000 -0.000000 0.900000 0.000000
0.823333 0.080488 -0.000000 -0.000000 0.900000 0.000000
0.950000 0.080488 -0.000000 -0.000000 0.900000 0.000000
1.076667 0.080488 -0.000000 -0.000000 0.900000 0.000000
1.203333 0.080488 -0.000000 -0.000000 0.900000 0.000000
1.330000 0.080488 -0.000000 -0.000000 0.900000 0.000000
1.456667 0.080488 -0.000000 -0.000000 0.900000 0.000000
1.583333 0.080488 -0.000000 -0.000000 0.900000 0.000000
1.710000 0.080488 -0.000000 -0.000000 0.900000 0.000000
1.836667 0.080488 -0.000000 -0.000000 0.900000 0.000000
1.963333 0.080488 -0.000000 0.000000 0.900000 0.000000
2.090000 0.080488 -0.000000 0.000000 0.900000 0.000000
2.216667 0.080488 -0.000000 0.000000 0.900000 0.000000
2.343333 0.080488 -0.000000 0.000000 0.900000 0.000000
2.470000 0.080488 -0.000000 0.000000 0.900000 0.000000
2.596667 0.080488 -0.000000 0.000000 0.900000 0.000000
2.723333 0.080488 -0.000000 0.000000 0.900000 0.000000
2.850000 0.080488 -0.000000 0.000000 0.900000 0.000000
2.976667 0.080488 -0.000000 0.000000 0.900000 0.000000
3.103333 0.080488 -0.000000 0.000000 0.900000 0.000000
3.230000 0.080488 -0.000000 -0.000000 0.900000 0.000000
3.356667 0.080488 -0.000000 -0.000000 0.900000 0.000000
3.483333 0.080488 -0.000000 -0.000000 0.900000 0.000000
3.610000 0.080488 -0.000000 -0.000000 0.900000 0.000000
3.736667 0.080488 0.000000 0.000000 0.000000 0.000000
0.063333 0.095122 0.000000 0.000000 0.000000 0.000000
0.190000 0.095122 -0.000000 0.000000 0.900000 0.000000
0.316667 0.095122 -0.000000 0.000000 0.900000 0.000000
0.443333 0.095122 -0.000000 0.000000 0.900000 0.000000
0.570000 0.095122 -0.000000 -0.000000 0.900000 0.000000
0.696667 0.095122 -0.000000 -0.000000 0.900000 0.000000
0.823333 0.095122 -0.000000 -0.000000 0.900000 0.000000
0.950000 0.095122 -0.000000 -0.000000 0.900000 0.000000
1.076667 0.095122 -0.000000 -0.000000 0.900000 0.000000
1.203333 0.095122 -0.000000 -0.000000 0.900000 0.000000
1.330000 0.095122 -0.000000 -0.000000 0.900000 0.000000
1.456667 0.095122 -0.000000 -0.000000 0.900000 0.000000
1.583333 0.095122 -0.000000 -0.000000 0.900000 0.000000
1.710000 0.095122 -0.000000 -0.000000 0.900000 0.000000
1.836667 0.095122 -0.000000 -0.000000 0.900000 0.000000
1.963333 0.095122 -0.000000 0.000000 0.900000 0.000000
2.090000 0.095122 -0.000000 0.000000 0.900000 0.000000
2.216667 0.095122 -0.000000 0.000000 0.900000 0.000000
2.343333 0.095122 -0.000000 0.000000 0.900000 0.000000
2.470000 0.095122 -0.000000 0.000000 0.900000 0.000000
2.596667 0.095122 -0.000000 0.000000 0.900000 0.000000
2.723333 0.095122 -0.000000 0.000000 0.900000 0.000000
2.850000 0.095122 -0.000000 0.000000 0.900000 0.000000
2.976667 0.095122 -0.000000 0.000000 0.900000 0.000000
3.103333 0.095122 -0.000000 -0.000000 0.900000 0.000000
3.230000 0.095122 -0.000000 -0.000000 0.900000 0.000000
3.356667 0.095122 -0.000000 -0.000000 0.900000 0.000000
3.483333 0.095122 -0.000000 -0.000000 0.900000 0.000000
3.610000 0.095122 -0.000000 -0.000000 0.900000 0.000000
3.736667 0.095122 0.000000 0.000000 0.000000 0.000000
0.063333 0.109756 0.000000 0.000000 0.000000 0.000000
0.190000 0.109756 -0.000000 0.000000 0.900000 0.000000
0.316667 0.109756 -0.000000 0.000000 0.900000 0.000000
0.443333 0.109756 -0.000000 0.000000 0.900000 0.000000
0.570000 0.109756 -0.000000 -0.000000 0.900000 0.000000
0.696667 0.109756 -0.000000 -0.000000 0.900000 0.000000
0.823333 0.109756 -0.000000 -0.000000 0.900000 0.000000
0.950000 0.109756 -0.000000 -0.000000 0.900000 0.000000
1.076667 0.109756 -0.000000 -0.000000 0.900000 0.000000
1.203333 0.109756 -0.000000 -0.000000 0.900000 0.000000
1.330000 0.109756 -0.000000 -0.000000 0.900000 0.000000
1.456667 0.109756 -0.000000 -0.000000 0.900000 0.000000
1.583333 0.109756 -0.000000 -0.000000 0.900000 0.000000
1.710000 0.109756 -0.000000 -0.000000 0.900000 0.000000
1.836667 0.109756 -0.000000 -0.000000 0.900000 0.000000
1.963333 0.109756 -0.000000 0.000000 0.900000 0.000000
2.090000 0.109756 -0.000000 0.000000 0.900000 0.000000
2.216667 0.109756 -0.000000 0.000000 0.900000 0.000000
2.343333 0.109756 -0.000000 0.000000 0.900000 0.000000
2.470000 0.109756 -0.000000 0.000000 0.900000 0.000000
2.596667 0.109756 -0.000000 0.000000 0.900000 0.000000
2.723333 0.109756 -0.000000 0.000000 0.900000 0.000000
2.850000 0.109756 -0.000000 0.000000 0.900000 0.000000
2.976667 0.109756 -0.000000 0.000000 0.900000 0.000000
3.103333 0.109756 -0.000000 -0.000000 0.900000 0.000000
3.230000 0.109756 -0.000000 -0.000000 0.900000 0.000000
3.356667 0.109756 -0.000000 -0.000000 0.900000 0.000000
3.483333 0.109756 -0.000000 -0.000000 0.900000 0.000000
3.610000 0.109756 -0.000000 -0.000000 0.900000 0.000000
3.736667 0.109756 0.000000 0.000000 0.000000 0.000000
0.063333 0.124390 0.000000 0.000000 0.000000 0.000000
0.190000 0.124390 -0.000000 0.000000 0.900000 0.000000
0.316667 0.124390 -0.000000 0.000000 0.900000 0.000000
0.443333 0.124390 -0.000000 0.000000 0.900000 0.000000
0.570000 0.124390 -0.000000 -0.000000 0.900000 0.000000
0.696667 0.124390 -0.000000 -0.000000 0.900000 0.000000
0.823333 0.124390 -0.000000 -0.000000 0.900000 0.000000
0.950000 0.124390 -0.000000 -0.000000 0.900000 0.000000
1.076667 0.124390 -0.000000 -0.000000 0.900000 0.000000
1.203333 0.124390 -0.000000 -0.000000 0.900000 0.000000
1.330000 0.124390 -0.000000 -0.000000 0.900000 0.000000
1.456667 0.124390 -0.000000 -0.000000 0.900000 0.000000
1.583333 0.124390 -0.000000 -0.000000 0.900000 0.000000
1.710000 0.124390 -0.000000 -0.000000 0.900000 0.000000
1.836667 0.124390 -0.000000 -0.000000 0.900000 0.000000
1.963333 0.124390 -0.000000 0.000000 0.900000 0.000000
2.090000 0.124390 -0.000000 0.000000 0.900000 0.000000
2.216667 0.124390 -0.000000 0.000000 0.900000 0.000000
2.343333 0.124390 -0.000000 0.000000 0.900000 0.000000
2.470000 0.124390 -0.000000 0.000000 0.900000 0.000000
2.596667 0.124390 -0.000000 0.000000 0.900000 0.000000
2.723333 0.124390 -0.000000 0.000000 0.900000 0.000000
2.850000 0.124390 -0.000000 0.000000 0.900000 0.000000
2.976667 0.124390 -0.000000 0.000000 0.900000 0.000000
3.103333 0.124390 -0.000000 -0.000000 0.900000 0.000000
3.230000 0.124390 -0.000000 -0.000000 0.900000 0.000000
3.356667 0.124390 -0.000000 -0.000000 0.900000 0.000000
3.483333 0.124390 -0.000000 -0.000000 0.900000 0.000000
3.610000 0.124390 -0.000000 -0.000000 0.900000 0.000000
3.736667 0.124390 0.000000 0.000000 0.000000 0.000000
0.063333 0.139024 0.000000 0.000000 0.000000 0.000000
0.190000 0.139024 -0.000000 0.000000 0.900000 0.000000
0.316667 0.139024 -0.000000 0.000000 0.900000 0.000000
0.443333 0.139024 -0.000000 0.000000 0.900000 0.000000
0.570000 0.139024 -0.000000 -0.000000 0.900000 0.000000
0.696667 0.139024 -0.000000 -0.000000 0.899999 0.000000
0.823333 0.139024 -0.000000 -0.000000 0.899999 0.000000
0.950000 0.139024 -0.000000 -0.000000 0.900000 0.000000
1.076667 0.139024 -0.000000 -0.000000 0.900000 0.000000
1.203333 0.139024 -0.000000 -0.000000 0.900000 0.000000
1.330000 0.139024 -0.000000 -0.000000 0.900000 0.000000
1.456667 0.139024 -0.000000 -0.000000 0.900000 0.000000
1.583333 0.139024 -0.000000 -0.000000 0.900000 0.000000
1.710000 0.139024 -0.000000 -0.000000 0.900000 0.000000
1.836667 0.139024 -0.000000 -0.000000 0.900000 0.000000
1.963333 0.139024 -0.000000 0.000000 0.900000 0.000000
2.090000 0.139024 -0.000000 0.000000 0.900000 0.000000
2.216667 0.139024 -0.000000 0.000000 0.900000 0.000000
2.343333 0.139024 -0.000000 0.000000 0.900000 0.000000
2.470000 0.139024 -0.000000 0.000000 0.900000 0.000000
2.596667 0.139024 -0.000000 0.000000 0.900000 0.000000
2.723333 0.139024 -0.000000 0.000000 0.900000 0.000000
2.850000 0.139024 -0.000000 0.000000 0.900000 0.000000
2.976667 0.139024 -0.000000 -0.000000 0.900000 0.000000
3.103333 0.139024 -0.000000 -0.000000 0.900000 0.000000
3.230000 0.139024 -0.000000 -0.000000 0.900000 0.000000
3.356667 0.139024 -0.000000 -0.000000 0.900000 0.000000
3.483333 0.139024 -0.000000 -0.000000 0.900000 0.000000
3.610000 0.139024 -0.000000 -0.000000 0.900000 0.000000
3.736667 0.139024 0.000000 0.000000 0.000000 0.000000
0.063333 0.153659 0.000000 0.000000 0.000000 0.000000
0.190000 0.153659 -0.000000 0.000000 0.900000 0.000000
0.316667 0.153659 -0.000000 0.000000 0.900000 0.000000
0.443333 0.153659 -0.000000 0.000000 0.900000 0.000000
0.570000 0.153659 -0.000000 -0.000000 0.899990 0.000000
0.696667 0.153659 -0.000002 -0.000000 0.899901 0.000002
0.823333 0.153659 -0.000002 -0.000000 0.899895 0.000002
0.950000 0.153659 -0.000001 -0.000000 0.899961 0.000001
1.076667 0.153659 -0.000000 -0.000000 0.899989 0.000000
1.203333 0.153659 -0.000000 -0.000000 0.899998 0.000000
1.330000 0.153659 -0.000000 -0.000000 0.900000 0.000000
1.456667 0.153659 -0.000000 -0.000000 0.900000 0.000000
1.583333 0.153659 -0.000000 -0.000000 0.899999 0.000000
1.710000 0.153659 -0.000000 -0.000000 0.900000 0.000000
1.836667 0.153659 -0.000000 -0.000000 0.900000 0.000000
1.963333 0.153659 -0.000000 0.000000 0.900000 0.000000
2.090000 0.153659 -0.000000 0.000000 0.900000 0.000000
2.216667 0.153659 -0.000000 0.000000 0.900000 0.000000
2.343333 0.153659 -0.000000 0.000000 0.900000 0.000000
2.470000 0.153659 -0.000000 0.000000 0.900000 0.000000
2.596667 0.153659 -0.000000 0.000000 0.900000 0.000000
2.723333 0.153659 -0.000000 0.000000 0.900000 0.000000
2.850000 0.153659 -0.000000 0.000000 0.900000 0.000000
2.976667 0.153659 -0.000000 -0.000000 0.900000 0.000000
3.103333 0.153659 -0.000000 -0.000000 0.900000 0.000000
3.230000 0.153659 -0.000000 -0.000000 0.900000 0.000000
3.356667 0.153659 -0.000000 -0.000000 0.900000 0.000000
3.483333 0.153659 -0.000000 -0.000000 0.899999 0.000000
3.610000 0.153659 -0.000000 -0.000000 0.899998 0.000000
3.736667 0.153659 0.000000 0.000000 0.000000 0.000000
0.063333 0.168293 0.000000 0.000000 0.000000 0.000000
0.190000 0.168293 -0.000000 0.000000 0.900000 0.000000
0.316667 0.168293 -0.000000 0.000000 0.899996 0.000000
0.443333 0.168293 -0.000003 0.000001 0.899877 0.000003
0.570000 0.168293 -0.000030 -0.000000 0.898817 0.000030
0.696667 0.168293 -0.000126 -0.000011 0.894774 0.000127
0.823333 0.168293 -0.000101 -0.000016 0.894919 0.000102
0.950000 0.168293 -0.000044 -0.000007 0.897217 0.000044
1.076667 0.168293 -0.000017 -0.000002 0.898694 0.000017
1.203333 0.168293 -0.000004 -0.000000 0.899589 0.000004
1.330000 0.168293 -0.000002 -0.000000 0.899815 0.000002
1.456667 0.168293 -0.000000 -0.000000 0.899957 0.000000
1.583333 0.168293 -0.000001 -0.000000 0.899840 0.000001
1.710000 0.168293 -0.000000 -0.000000 0.899958 0.000000
1.836667 0.168293 -0.000000 -0.000000 0.899989 0.000000
1.963333 0.168293 -0.000000 0.000000 0.899991 0.000000
2.090000 0.168293 -0.000000 0.000000 0.899999 0.000000
2.216667 0.168293 -0.000000 0.000000 0.899999 0.000000
2.343333 0.168293 -0.000000 0.000000 0.899998 0.000000
2.470000 0.168293 -0.000000 0.000000 0.899998 0.000000
2.596667 0.168293 -0.000000 0.000000 0.899999 0.000000
2.723333 0.168293 -0.000000 0.000000 0.899999 0.000000
2.850000 0.168293 -0.000000 0.000000 0.900000 0.000000
2.976667 0.168293 -0.000000 -0.000000 0.899998 0.000000
3.103333 0.168293 -0.000000 -0.000000 0.899996 0.000000
3.230000 0.168293 -0.000000 -0.000000 0.899994 0.000000
3.356667 0.168293 -0.000000 -0.000000 0.899988 0.000000
3.483333 0.168293 -0.000000 -0.000000 0.899968 0.000000
3.610000 0.168293 -0.000000 -0.000001 0.899919 0.000001
3.736667 0.168293 0.000000 0.000000 0.000000 0.000000
0.063333 0.182927 0.000000 0.000000 0.000000 0.000000
0.190000 0.182927 0.000228 0.003707 0.711781 0.003714
0.316667 0.182927 0.000415 0.002277 0.707967 0.002314
0.443333 0.182927 0.000276 0.000870 0.722766 0.000913
0.570000 0.182927 -0.000008 0.000150 0.745283 0.000150
0.696667 0.182927 -0.000197 -0.000205 0.770389 0.000284
0.823333 0.182927 -0.000149 -0.000305 0.790831 0.000340
0.950000 0.182927 -0.000071 -0.000195 0.808757 0.000207
1.076667 0.182927 -0.000003 -0.000079 0.825849 0.000079
1.203333 0.182927 0.000069 -0.000022 0.843654 0.000072
1.330000 0.182927 0.000114 -0.000019 0.862306 0.000115
1.456667 0.182927 0.000059 -0.000017 0.880663 0.000062
1.583333 0.182927 0.000015 -0.000007 0.891395 0.000017
1.710000 0.182927 0.000000 -0.000003 0.897713 0.000003
1.836667 0.182927 -0.000002 -0.000001 0.897794 0.000003
1.963333 0.182927 -0.000001 -0.000000 0.898072 0.000001
2.090000 0.182927 -0.000000 0.000000 0.899131 0.000000
2.216667 0.182927 -0.000001 0.000001 0.899405 0.000001
2.343333 0.182927 -0.000002 0.000001 0.899298 0.000002
2.470000 0.182927 -0.000003 0.000001 0.899357 0.000003
2.596667 0.182927 -0.000002 0.000001 0.899708 0.000002
2.723333 0.182927 -0.000001 0.000000 0.899907 0.000001
2.850000 0.182927 -0.000001 0.000000 0.899915 0.000001
2.976667 0.182927 -0.000003 -0.000000 0.899673 0.000003
3.103333 0.182927 -0.000004 -0.000001 0.899571 0.000004
3.230000 0.182927 -0.000003 -0.000002 0.899669 0.000003
3.356667 0.182927 -0.000005 -0.000003 0.899416 0.000005
3.483333 0.182927 -0.000007 -0.000008 0.898884 0.000011
3.610000 0.182927 -0.000006 -0.000021 0.897951 0.000022
3.736667 0.182927 0.000000 0.000000 0.000000 0.000000
0.063333 0.197561 0.000000 0.000000 0.000000 0.000000
0.190000 0.197561 0.002159 0.005483 0.622608 0.005892
0.316667 0.197561 0.005434 0.003468 0.613382 0.006446
0.443333 0.197561 0.006860 0.001584 0.607708 0.007041
0.570000 0.197561 0.007132 0.000536 0.604729 0.007152
0.696667 0.197561 0.006681 -0.000226 0.600855 0.006685
0.823333 0.197561 0.005793 -0.000640 0.600507 0.005828
0.950000 0.197561 0.004920 -0.000503 0.600434 0.004945
1.076667 0.197561 0.004109 -0.000238 0.600161 0.004116
1.203333 0.197561 0.003282 -0.000039 0.600735 0.003282
1.330000 0.197561 0.002497 0.000121 0.602117 0.002500
1.456667 0.197561 0.001236 0.000323 0.603672 0.001278
1.583333 0.197561 -0.000112 0.000272 0.612230 0.000294
1.710000 0.197561 -0.001074 0.000052 0.625494 0.001075
1.836667 0.197561 -0.001573 -0.000073 0.646566 0.001574
1.963333 0.197561 -0.001506 -0.000035 0.666424 0.001507
2.090000 0.197561 -0.001304 0.000041 0.685381 0.001305
2.216667 0.197561 -0.001077 0.000183 0.705618 0.001092
2.343333 0.197561 -0.000808 0.000228 0.727441 0.000839
2.470000 0.197561 -0.000505 0.000197 0.750642 0.000543
2.596667 0.197561 -0.000221 0.000206 0.775487 0.000302
2.723333 0.197561 0.000020 0.000104 0.801996 0.000106
2.850000 0.197561 0.000154 -0.000002 0.829028 0.000154
2.976667 0.197561 0.000166 -0.000045 0.855013 0.000172
3.103333 0.197561 0.000032 -0.000061 0.879499 0.000069
3.230000 0.197561 -0.000064 -0.000055 0.888257 0.000084
3.356667 0.197561 -0.000171 -0.000098 0.882121 0.000197
3.483333 0.197561 -0.000201 -0.000185 0.876040 0.000273
3.610000 0.197561 -0.000114 -0.000359 0.868365 0.000377
3.736667 0.197561 0.000000 0.000000 0.000000 0.000000
0.063333 0.212195 0.000000 0.000000 0.000000 0.000000
0.190000 0.212195 0.002076 0.005446 0.602774 0.005828
0.316667 0.212195 0.005269 0.003410 0.600916 0.006276
0.443333 0.212195 0.006819 0.001529 0.600253 0.006989
0.570000 0.212195 0.007026 0.000561 0.600086 0.007048
0.696667 0.212195 0.006495 -0.000200 0.600004 0.006498
0.823333 0.212195 0.005763 -0.000614 0.600001 0.005796
0.950000 0.212195 0.004924 -0.000499 0.600000 0.004949
1.076667 0.212195 0.004155 -0.000244 0.600000 0.004163
1.203333 0.212195 0.003414 -0.000035 0.600004 0.003415
1.330000 0.212195 0.002688 0.000213 0.600038 0.002696
1.456667 0.212195 0.002129 0.000547 0.600115 0.002198
1.583333 0.212195 0.001795 0.000464 0.600319 0.001854
1.710000 0.212195 0.001535 0.000242 0.600169 0.001554
1.836667 0.212195 0.000961 0.000040 0.600147 0.000962
1.963333 0.212195 0.000213 0.000007 0.600038 0.000213
2.090000 0.212195 -0.000260 0.000027 0.600006 0.000261
2.216667 0.212195 -0.000461 0.000186 0.600377 0.000497
2.343333 0.212195 -0.000495 0.000267 0.600869 0.000563
2.470000 0.212195 -0.000539 0.000246 0.601023 0.000592
2.596667 0.212195 -0.000476 0.000299 0.602042 0.000562
2.723333 0.212195 -0.000182 0.000110 0.602410 0.000213
2.850000 0.212195 0.000161 -0.000169 0.600997 0.000233
2.976667 0.212195 0.000422 -0.000432 0.600002 0.000604
3.103333 0.212195 -0.000190 -0.000594 0.600288 0.000624
3.230000 0.212195 -0.001645 -0.000972 0.612179 0.001911
3.356667 0.212195 -0.001852 -0.001512 0.633747 0.002390
3.483333 0.212195 -0.001023 -0.002017 0.651363 0.002261
3.610000 0.212195 -0.000320 -0.002861 0.664312 0.002879
3.736667 0.212195 0.000000 0.000000 0.000000 0.000000
0.063333 0.226829 0.000000 0.000000 0.000000 0.000000
0.190000 0.226829 0.001927 0.005071 0.600229 0.005425
0.316667 0.226829 0.004979 0.003203 0.600042 0.005920
0.443333 0.226829 0.006630 0.001431 0.600006 0.006782
0.570000 0.226829 0.006945 0.000599 0.600001 0.006971
0.696667 0.226829 0.006462 -0.000183 0.600000 0.006465
0.823333 0.226829 0.005773 -0.000586 0.600000 0.005802
0.950000 0.226829 0.004962 -0.000496 0.600000 0.004986
1.076667 0.226829 0.004196 -0.000263 0.600000 0.004204
1.203333 0.226829 0.003456 -0.000068 0.600000 0.003456
1.330000 0.226829 0.002737 0.000139 0.600000 0.002741
1.456667 0.226829 0.002177 0.000407 0.600002 0.002215
1.583333 0.226829 0.001798 0.000330 0.600004 0.001828
1.710000 0.226829 0.001478 0.000159 0.600001 0.001486
1.836667 0.226829 0.000919 0.000144 0.600001 0.000930
1.963333 0.226829 0.000256 0.000104 0.600000 0.000277
2.090000 0.226829 -0.000172 0.000042 0.600000 0.000177
2.216667 0.226829 -0.000385 0.000123 0.600001 0.000404
2.343333 0.226829 -0.000447 0.000187 0.600005 0.000484
2.470000 0.226829 -0.000481 0.000169 0.600006 0.000510
2.596667 0.226829 -0.000416 0.000194 0.600018 0.000459
2.723333 0.226829 -0.000229 0.000006 0.600020 0.000229
2.850000 0.226829 0.000038 -0.000244 0.600002 0.000247
2.976667 0.226829 0.000366 -0.000478 0.600000 0.000602
3.103333 0.226829 0.000791 -0.000465 0.600000 0.000918
3.230000 0.226829 0.001146 -0.000828 0.600000 0.001414
3.356667 0.226829 0.001358 -0.001692 0.600000 0.002169
3.483333 0.226829 0.001551 -0.002431 0.600000 0.002883
3.610000 0.226829 0.000816 -0.003575 0.600000 0.003667
3.736667 0.226829 0.000000 0.000000 0.000000 0.000000
0.063333 0.241463 0.000000 0.000000 0.000000 0.000000
0.190000 0.241463 0.001814 0.004686 0.600014 0.005025
0.316667 0.241463 0.004746 0.002979 0.600001 0.005604
0.443333 0.241463 0.006465 0.001310 0.600000 0.006596
0.570000 0.241463 0.006877 0.000633 0.600000 0.006906
0.696667 0.241463 0.006437 -0.000169 0.600000 0.006439
0.823333 0.241463 0.005786 -0.000559 0.600000 0.005813
0.950000 0.241463 0.005001 -0.000489 0.600000 0.005025
1.076667 0.241463 0.004239 -0.000277 0.600000 0.004248
1.203333 0.241463 0.003498 -0.000098 0.600000 0.003499
1.330000 0.241463 0.002783 0.000071 0.600000 0.002784
1.456667 0.241463 0.002203 0.000279 0.600000 0.002221
1.583333 0.241463 0.001779 0.000210 0.600000 0.001792
1.710000 0.241463 0.001415 0.000082 0.600000 0.001417
1.836667 0.241463 0.000880 0.000227 0.600000 0.000909
1.963333 0.241463 0.000314 0.000178 0.600000 0.000361
2.090000 0.241463 -0.000076 0.000050 0.600000 0.000091
2.216667 0.241463 -0.000318 0.000054 0.600000 0.000323
2.343333 0.241463 -0.000405 0.000104 0.600000 0.000419
2.470000 0.241463 -0.000451 0.000088 0.600000 0.000459
2.596667 0.241463 -0.000400 0.000097 0.600000 0.000411
2.723333 0.241463 -0.000235 -0.000080 0.600000 0.000248
2.850000 0.241463 0.000017 -0.000315 0.600000 0.000315
2.976667 0.241463 0.000341 -0.000525 0.600000 0.000626
3.103333 0.241463 0.000740 -0.000544 0.600000 0.000919
3.230000 0.241463 0.001039 -0.000831 0.600000 0.001330
3.356667 0.241463 0.001229 -0.001620 0.600000 0.002033
3.483333 0.241463 0.001390 -0.002356 0.600000 0.002735
3.610000 0.241463 0.000716 -0.003342 0.600000 0.003418
3.736667 0.241463 0.000000 0.000000 0.000000 0.000000
0.063333 0.256098 0.000000 0.000000 0.000000 0.000000
0.190000 0.256098 0.001713 0.004325 0.600001 0.004652
0.316667 0.256098 0.004531 0.002752 0.600000 0.005301
0.443333 0.256098 0.006315 0.001168 0.600000 0.006422
0.570000 0.256098 0.006822 0.000664 0.600000 0.006854
0.696667 0.256098 0.006418 -0.000156 0.600000 0.006419
0.823333 0.256098 0.005805 -0.000532 0.600000 0.005829
0.950000 0.256098 0.005042 -0.000477 0.600000 0.005065
1.076667 0.256098 0.004284 -0.000285 0.600000 0.004293
1.203333 0.256098 0.003541 -0.000121 0.600000 0.003543
1.330000 0.256098 0.002827 0.000016 0.600000 0.002828
1.456667 0.256098 0.002230 0.000176 0.600000 0.002237
1.583333 0.256098 0.001764 0.000112 0.600000 0.001768
1.710000 0.256098 0.001353 0.000019 0.600000 0.001353
1.836667 0.256098 0.000841 0.000294 0.600000 0.000891
1.963333 0.256098 0.000382 0.000232 0.600000 0.000447
2.090000 0.256098 0.000033 0.000066 0.600000 0.000073
2.216667 0.256098 -0.000245 -0.000001 0.600000 0.000245
2.343333 0.256098 -0.000358 0.000036 0.600000 0.000360
2.470000 0.256098 -0.000416 0.000022 0.600000 0.000416
2.596667 0.256098 -0.000379 0.000018 0.600000 0.000380
2.723333 0.256098 -0.000236 -0.000149 0.600000 0.000279
2.850000 0.256098 0.000001 -0.000370 0.600000 0.000370
2.976667 0.256098 0.000317 -0.000562 0.600000 0.000645
3.103333 0.256098 0.000696 -0.000602 0.600000 0.000921
3.230000 0.256098 0.000965 -0.000818 0.600000 0.001265
3.356667 0.256098 0.001163 -0.001553 0.600000 0.001940
3.483333 0.256098 0.001321 -0.002276 0.600000 0.002631
3.610000 0.256098 0.000670 -0.003129 0.600000 0.003200
3.736667 0.256098 0.000000 0.000000 0.000000 0.000000
0.063333 0.270732 0.000000 0.000000 0.000000 0.000000
0.190000 0.270732 0.001620 0.003988 0.600000 0.004305