TITLE="(Vx,Vy)"
VARIABLES=X,Y,Vx,Vy,Vm,V
ZONE T="T-Dummy" I=30, J=41, F=POINT
0.063333 0.007317 0.000000 0.000000 0.000000 0.000000
0.190000 0.007317 0.000000 0.000000 0.000000 0.000000
0.316667 0.007317 0.000000 0.000000 0.000000 0.000000
0.443333 0.007317 0.000000 0.000000 0.000000 0.000000
0.570000 0.007317 0.000000 0.000000 0.000000 0.000000
0.696667 0.007317 0.000000 0.000000 0.000000 0.000000
0.823333 0.007317 0.000000 0.000000 0.000000 0.000000
0.950000 0.007317 0.000000 0.000000 0.000000 0.000000
1.076667 0.007317 0.000000 0.000000 0.000000 0.000000
1.203333 0.007317 0.000000 0.000000 0.000000 0.000000
1.330000 0.007317 0.000000 0.000000 0.000000 0.000000
1.456667 0.007317 0.000000 0.000000 0.000000 0.000000
1.583333 0.007317 0.000000 0.000000 0.000000 0.000000
1.710000 0.007317 0.000000 0.000000 0.000000 0.000000
1.836667 0.007317 0.000000 0.000000 0.000000 0.000000
1.963333 0.007317 0.000000 0.000000 0.000000 0.000000
2.090000 0.007317 0.000000 0.000000 0.000000 0.000000
2.216667 0.007317 0.000000 0.000000 0.000000 0.000000
2.343333 0.007317 0.000000 0.000000 0.000000 0.000000
2.470000 0.007317 0.000000 0.000000 0.000000 0.000000
2.596667 0.007317 0.000000 0.000000 0.000000 0.000000
2.723333 0.007317 0.000000 0.000000 0.000000 0.000000
2.850000 0.007317 0.000000 0.000000 0.000000 0.000000
2.976667 0.007317 0.000000 0.000000 0.000000 0.000000
3.103333 0.007317 0.000000 0.000000 0.000000 0.000000
3.230000 0.007317 0.000000 0.000000 0.000000 0.000000
3.356667 0.007317 0.000000 0.000000 0.000000 0.000000
3.483333 0.007317 0.000000 0.000000 0.000000 0.000000
3.610000 0.007317 0.000000 0.000000 0.000000 0.000000
3.736667 0.007317 0.000000 0.000000 0.000000 0.000000
0.063333 0.021951 0.000000 0.000000 0.000000 0.000000
0.190000 0.021951 -0.000000 0.000000 0.900000 0.000000
0.316667 0.021951 -0.000000 0.000000 0.900000 0.000000
0.443333 0.021951 -0.000000 -0.000000 0.900000 0.000000
0.570000 0.021951 -0.000000 -0.000000 0.900000 0.000000
0.696667 0.021951 0.000000 -0.000000 0.900000 0.000000
0.823333 0.021951 0.000000 -0.000000 0.900000 0.000000
0.950000 0.021951 0.000000 -0.000000 0.900000 0.000000
1.076667 0.021951 0.000000 -0.000000 0.900000 0.000000
1.203333 0.021951 0.000000 -0.000000 0.900000 0.000000
1.330000 0.021951 0.000000 -0.000000 0.900000 0.000000
1.456667 0.021951 0.000000 -0.000000 0.900000 0.000000
1.583333 0.021951 0.000000 -0.000000 0.900000 0.000000
1.710000 0.021951 0.000000 -0.000000 0.900000 0.000000
1.836667 0.021951 0.000000 0.000000 0.900000 0.000000
1.963333 0.021951 0.000000 0.000000 0.900000 0.000000
2.090000 0.021951 0.000000 -0.000000 0.900000 0.000000
2.216667 0.021951 0.000000 -0.000000 0.900000 0.000000
2.343333 0.021951 0.000000 -0.000000 0.900000 0.000000
2.470000 0.021951 0.000000 -0.000000 0.900000 0.000000
2.596667 0.021951 0.000000 -0.000000 0.900000 0.000000
2.723333 0.021951 0.000000 -0.000000 0.900000 0.000000
2.850000 0.021951 0.000000 -0.000000 0.900000 0.000000
2.976667 0.021951 0.000000 -0.000000 0.900000 0.000000
3.103333 0.021951 0.000000 -0.000000 0.900000 0.000000
3.230000 0.021951 0.000000 0.000000 0.900000 0.000000
3.356667 0.021951 0.000000 0.000000 0.900000 0.000000
3.483333 0.021951 0.000000 0.000000 0.900000 0.000000
3.610000 0.021951 0.000000 0.000000 0.900000 0.000000
3.736667 0.021951 0.000000 0.000000 0.000000 0.000000
0.063333 0.036585 0.000000 0.000000 0.000000 0.000000
0.190000 0.036585 -0.000000 0.000000 0.900000 0.000000
0.316667 0.036585 -0.000000 0.000000 0.900000 0.000000
0.443333 0.036585 -0.000000 -0.000000 0.900000 0.000000
0.570000 0.036585 0.000000 -0.000000 0.900000 0.000000
0.696667 0.036585 0.000000 -0.000000 0.900000 0.000000
0.823333 0.036585 0.000000 -0.000000 0.900000 0.000000
0.950000 0.036585 0.000000 -0.000000 0.900000 0.000000
1.076667 0.036585 0.000000 -0.000000 0.900000 0.000000
1.203333 0.036585 0.000000 -0.000000 0.900000 0.000000
1.330000 0.036585 0.000000 -0.000000 0.900000 0.000000
1.456667 0.036585 0.000000 -0.000000 0.900000 0.000000
1.583333 0.036585 0.000000 -0.000000 0.900000 0.000000
1.710000 0.036585 0.000000 -0.000000 0.900000 0.000000
1.836667 0.036585 0.000000 0.000000 0.900000 0.000000
1.963333 0.036585 0.000000 0.000000 0.900000 0.000000
2.090000 0.036585 0.000000 -0.000000 0.900000 0.000000
2.216667 0.036585 0.000000 -0.000000 0.900000 0.000000
2.343333 0.036585 0.000000 -0.000000 0.900000 0.000000
2.470000 0.036585 0.000000 -0.000000 0.900000 0.000000
2.596667 0.036585 0.000000 -0.000000 0.900000 0.000000
2.723333 0.036585 0.000000 -0.000000 0.900000 0.000000
2.850000 0.036585 0.000000 -0.000000 0.900000 0.000000
2.976667 0.036585 0.000000 -0.000000 0.900000 0.000000
3.103333 0.036585 0.000000 -0.000000 0.900000 0.000000
3.230000 0.036585 0.000000 -0.000000 0.900000 0.000000
3.356667 0.036585 0.000000 0.000000 0.900000 0.000000
3.483333 0.036585 0.000000 0.000000 0.900000 0.000000
3.610000 0.036585 0.000000 0.000000 0.900000 0.000000
3.736667 0.036585 0.000000 0.000000 0.000000 0.000000
0.063333 0.051220 0.000000 0.000000 0.000000 0.000000
0.190000 0.051220 -0.000000 0.000000 0.900000 0.000000
0.316667 0.051220 -0.000000 0.000000 0.900000 0.000000
0.443333 0.051220 -0.000000 -0.000000 0.900000 0.000000
0.570000 0.051220 0.000000 -0.000000 0.900000 0.000000
0.696667 0.051220 0.000000 -0.000000 0.900000 0.000000
0.823333 0.051220 0.000000 -0.000000 0.900000 0.000000
0.950000 0.051220 0.000000 -0.000000 0.900000 0.000000
1.076667 0.051220 0.000000 -0.000000 0.900000 0.000000
1.203333 0.051220 0.000000 -0.000000 0.900000 0.000000
1.330000 0.051220 0.000000 -0.000000 0.900000 0.000000
1.456667 0.051220 0.000000 -0.000000 0.900000 0.000000
1.583333 0.051220 0.000000 -0.000000 0.900000 0.000000
1.710000 0.051220 0.000000 -0.000000 0.900000 0.000000
1.836667 0.051220 0.000000 0.000000 0.900000 0.000000
1.963333 0.051220 0.000000 0.000000 0.900000 0.000000
2.090000 0.051220 0.000000 -0.000000 0.900000 0.000000
2.216667 0.051220 0.000000 -0.000000 0.900000 0.000000
2.343333 0.051220 0.000000 -0.000000 0.900000 0.000000
2.470000 0.051220 0.000000 -0.000000 0.900000 0.000000
2.596667 0.051220 0.000000 -0.000000 0.900000 0.000000
2.723333 0.051220 0.000000 -0.000000 0.900000 0.000000
2.850000 0.051220 0.000000 -0.000000 0.900000 0.000000
2.976667 0.051220 0.000000 -0.000000 0.900000 0.000000
3.103333 0.051220 0.000000 -0.000000 0.900000 0.000000
3.230000 0.051220 0.000000 -0.000000 0.900000 0.000000
3.356667 0.051220 0.000000 0.000000 0.900000 0.000000
3.483333 0.051220 0.000000 0.000000 0.900000 0.000000
3.610000 0.051220 0.000000 0.000000 0.900000 0.000000
3.736667 0.051220 0.000000 0.000000 0.000000 0.000000
0.063333 0.065854 0.000000 0.000000 0.000000 0.000000
0.190000 0.065854 -0.000000 0.000000 0.900000 0.000000
0.316667 0.065854 -0.000000 0.000000 0.900000 0.000000
0.443333 0.065854 -0.000000 -0.000000 0.900000 0.000000
0.570000 0.065854 0.000000 -0.000000 0.900000 0.000000
0.696667 0.065854 0.000000 -0.000000 0.900000 0.000000
0.823333 0.065854 0.000000 -0.000000 0.900000 0.000000
0.950000 0.065854 0.000000 -0.000000 0.900000 0.000000
1.076667 0.065854 0.000000 -0.000000 0.900000 0.000000
1.203333 0.065854 0.000000 -0.000000 0.900000 0.000000
1.330000 0.065854 0.000000 -0.000000 0.900000 0.000000
1.456667 0.065854 0.000000 -0.000000 0.900000 0.000000
1.583333 0.065854 0.000000 -0.000000 0.900000 0.000000
1.710000 0.065854 0.000000 -0.000000 0.900000 0.000000
1.836667 0.065854 0.000000 0.000000 0.900000 0.000000
1.963333 0.065854 0.000000 0.000000 0.900000 0.000000
2.090000 0.065854 0.000000 -0.000000 0.900000 0.000000
2.216667 0.065854 0.000000 -0.000000 0.900000 0.000000
2.343333 0.065854 0.000000 -0.000000 0.900000 0.000000
2.470000 0.065854 0.000000 -0.000000 0.900000 0.000000
2.596667 0.065854 0.000000 -0.000000 0.900000 0.000000
2.723333 0.065854 0.000000 -0.000000 0.900000 0.000000
2.850000 0.065854 0.000000 -0.000000 0.900000 0.000000
2.976667 0.065854 0.000000 -0.000000 0.900000 0.000000
3.103333 0.065854 0.000000 -0.000000 0.900000 0.000000
3.230000 0.065854 0.000000 -0.000000 0.900000 0.000000
3.356667 0.065854 0.000000 -0.000000 0.900000 0.000000
3.483333 0.065854 0.000000 0.000000 0.900000 0.000000
3.610000 0.065854 0.000000 0.000000 0.900000 0.000000
3.736667 0.065854 0.000000 0.000000 0.000000 0.000000
0.063333 0.080488 0.000000 0.000000 0.000000 0.000000
0.190000 0.080488 -0.000000 0.000000 0.900000 0.000000
0.316667 0.080488 -0.000000 0.000000 0.900000 0.000000
0.443333 0.080488 -0.000000 -0.000000 0.900000 0.000000
0.570000 0.080488 0.000000 -0.000000 0.900000 0.000000
0.696667 0.080488 0.000000 -0.000000 0.900000 0.000000
0.823333 0.080488 0.000000 -0.000000 0.900000 0.000000
0.950000 0.080488 0.000000 -0.000000 0.900000 0.000000
1.076667 0.080488 0.000000 -0.000000 0.900000 0.000000
1.203333 0.080488 0.000000 -0.000000 0.900000 0.000000
1.330000 0.080488 0.000000 -0.000000 0.900000 0.000000
1.456667 0.080488 0.000000 -0.000000 0.900000 0.000000
1.583333 0.080488 0.000000 -0.000000 0.900000 0.000000
1.710000 0.080488 0.000000 -0.000000 0.900000 0.000000
1.836667 0.080488 0.000000 0.000000 0.900000 0.000000
1.963333 0.080488 0.000000 0.000000 0.900000 0.000000
2.090000 0.080488 0.000000 -0.000000 0.900000 0.000000
2.216667 0.080488 0.000000 -0.000000 0.900000 0.000000
2.343333 0.080488 0.000000 -0.000000 0.900000 0.000000
2.470000 0.080488 0.000000 -0.000000 0.900000 0.000000
2.596667 0.080488 0.000000 -0.000000 0.900000 0.000000
2.723333 0.080488 0.000000 -0.000000 0.900000 0.000000
2.850000 0.080488 0.000000 -0.000000 0.900000 0.000000
2.976667 0.080488 0.000000 -0.000000 0.900000 0.000000
3.103333 0.080488 0.000000 -0.000000 0.900000 0.000000
3.230000 0.080488 0.000000 -0.000000 0.900000 0.000000
3.356667 0.080488 0.000000 -0.000000 0.900000 0.000000
3.483333 0.080488 0.000000 0.000000 0.900000 0.000000
3.610000 0.080488 0.000000 0.000000 0.900000 0.000000
3.736667 0.080488 0.000000 0.000000 0.000000 0.000000
0.063333 0.095122 0.000000 0.000000 0.000000 0.000000
0.190000 0.095122 -0.000000 0.000000 0.900000 0.000000
0.316667 0.095122 -0.000000 0.000000 0.900000 0.000000
0.443333 0.095122 -0.000000 -0.000000 0.900000 0.000000
0.570000 0.095122 0.000000 -0.000000 0.900000 0.000000
0.696667 0.095122 0.000000 -0.000000 0.900000 0.000000
0.823333 0.095122 0.000000 -0.000000 0.900000 0.000000
0.950000 0.095122 0.000000 -0.000000 0.900000 0.000000
1.076667 0.095122 0.000000 -0.000000 0.900000 0.000000
1.203333 0.095122 0.000000 -0.000000 0.900000 0.000000
1.330000 0.095122 0.000000 -0.000000 0.900000 0.000000
1.456667 0.095122 0.000000 -0.000000 0.900000 0.000000
1.583333 0.095122 0.000000 -0.000000 0.900000 0.000000
1.710000 0.095122 0.000000 -0.000000 0.900000 0.000000
1.836667 0.095122 0.000000 0.000000 0.900000 0.000000
1.963333 0.095122 0.000000 0.000000 0.900000 0.000000
2.090000 0.095122 0.000000 -0.000000 0.900000 0.000000
2.216667 0.095122 0.000000 -0.000000 0.900000 0.000000
2.343333 0.095122 0.000000 -0.000000 0.900000 0.000000
2.470000 0.095122 0.000000 -0.000000 0.900000 0.000000
2.596667 0.095122 0.000000 -0.000000 0.900000 0.000000
2.723333 0.095122 0.000000 -0.000000 0.900000 0.000000
2.850000 0.095122 0.000000 -0.000000 0.900000 0.000000
2.976667 0.095122 0.000000 -0.000000 0.900000 0.000000
3.103333 0.095122 0.000000 -0.000000 0.900000 0.000000
3.230000 0.095122 0.000000 -0.000000 0.900000 0.000000
3.356667 0.095122 0.000000 -0.000000 0.900000 0.000000
3.483333 0.095122 0.000000 0.000000 0.900000 0.000000
3.610000 0.095122 0.000000 0.000000 0.900000 0.000000
3.736667 0.095122 0.000000 0.000000 0.000000 0.000000
0.063333 0.109756 0.000000 0.000000 0.000000 0.000000
0.190000 0.109756 -0.000000 0.000000 0.900000 0.000000
0.316667 0.109756 -0.000000 0.000000 0.900000 0.000000
0.443333 0.109756 -0.000000 -0.000000 0.900000 0.000000
0.570000 0.109756 0.000000 -0.000000 0.900000 0.000000
0.696667 0.109756 0.000000 -0.000000 0.900000 0.000000
0.823333 0.109756 0.000000 -0.000000 0.900000 0.000000
0.950000 0.109756 0.000000 -0.000000 0.900000 0.000000
1.076667 0.109756 0.000000 -0.000000 0.900000 0.000000
1.203333 0.109756 0.000000 -0.000000 0.900000 0.000000
1.330000 0.109756 0.000000 -0.000000 0.900000 0.000000
1.456667 0.109756 0.000000 -0.000000 0.900000 0.000000
1.583333 0.109756 0.000000 -0.000000 0.900000 0.000000
1.710000 0.109756 0.000000 -0.000000 0.900000 0.000000
1.836667 0.109756 0.000000 0.000000 0.900000 0.000000
1.963333 0.109756 0.000000 0.000000 0.900000 0.000000
2.090000 0.109756 0.000000 -0.000000 0.900000 0.000000
2.216667 0.109756 0.000000 -0.000000 0.900000 0.000000
2.343333 0.109756 0.000000 -0.000000 0.900000 0.000000
2.470000 0.109756 0.000000 -0.000000 0.900000 0.000000
2.596667 0.109756 0.000000 -0.000000 0.900000 0.000000
2.723333 0.109756 0.000000 -0.000000 0.900000 0.000000
2.850000 0.109756 0.000000 -0.000000 0.900000 0.000000
2.976667 0.109756 0.000000 -0.000000 0.900000 0.000000
3.103333 0.109756 0.000000 -0.000000 0.900000 0.000000
3.230000 0.109756 0.000000 -0.000000 0.900000 0.000000
3.356667 0.109756 0.000000 -0.000000 0.900000 0.000000
3.483333 0.109756 0.000000 0.000000 0.900000 0.000000
3.610000 0.109756 0.000000 0.000000 0.900000 0.000000
3.736667 0.109756 0.000000 0.000000 0.000000 0.000000
0.063333 0.124390 0.000000 0.000000 0.000000 0.000000
0.190000 0.124390 -0.000000 0.000000 0.900000 0.000000
0.316667 0.124390 -0.000000 0.000000 0.900000 0.000000
0.443333 0.124390 -0.000000 -0.000000 0.900000 0.000000
0.570000 0.124390 0.000000 -0.000000 0.900000 0.000000
0.696667 0.124390 0.000000 -0.000000 0.900000 0.000000
0.823333 0.124390 0.000000 -0.000000 0.900000 0.000000
0.950000 0.124390 0.000000 -0.000000 0.900000 0.000000
1.076667 0.124390 0.000000 -0.000000 0.900000 0.000000
1.203333 0.124390 0.000000 -0.000000 0.900000 0.000000
1.330000 0.124390 0.000000 -0.000000 0.900000 0.000000
1.456667 0.124390 0.000000 -0.000000 0.900000 0.000000
1.583333 0.124390 0.000000 -0.000000 0.900000 0.000000
1.710000 0.124390 0.000000 -0.000000 0.900000 0.000000
1.836667 0.124390 0.000000 0.000000 0.900000 0.000000
1.963333 0.124390 0.000000 0.000000 0.900000 0.000000
2.090000 0.124390 0.000000 -0.000000 0.900000 0.000000
2.216667 0.124390 0.000000 -0.000000 0.900000 0.000000
2.343333 0.124390 0.000000 -0.000000 0.900000 0.000000
2.470000 0.124390 0.000000 -0.000000 0.900000 0.000000
2.596667 0.124390 0.000000 -0.000000 0.900000 0.000000
2.723333 0.124390 0.000000 -0.000000 0.900000 0.000000
2.850000 0.124390 0.000000 -0.000000 0.900000 0.000000
2.976667 0.124390 0.000000 -0.000000 0.900000 0.000000
3.103333 0.124390 0.000000 -0.000000 0.900000 0.000000
3.230000 0.124390 0.000000 -0.000000 0.900000 0.000000
3.356667 0.124390 0.000000 -0.000000 0.900000 0.000000
3.483333 0.124390 0.000000 0.000000 0.900000 0.000000
3.610000 0.124390 0.000000 0.000000 0.900000 0.000000
3.736667 0.124390 0.000000 0.000000 0.000000 0.000000
0.063333 0.139024 0.000000 0.000000 0.000000 0.000000
0.190000 0.139024 -0.000000 0.000000 0.900000 0.000000
0.316667 0.139024 -0.000000 0.000000 0.900000 0.000000
0.443333 0.139024 -0.000000 -0.000000 0.900000 0.000000
0.570000 0.139024 0.000000 -0.000000 0.900000 0.000000
0.696667 0.139024 0.000000 -0.000000 0.900000 0.000000
0.823333 0.139024 0.000000 -0.000000 0.900000 0.000000
0.950000 0.139024 0.000000 -0.000000 0.900000 0.000000
1.076667 0.139024 0.000000 -0.000000 0.900000 0.000000
1.203333 0.139024 0.000000 -0.000000 0.900000 0.000000
1.330000 0.139024 0.000000 -0.000000 0.900000 0.000000
1.456667 0.139024 0.000000 -0.000000 0.900000 0.000000
1.583333 0.139024 0.000000 -0.000000 0.900000 0.000000
1.710000 0.139024 0.000000 -0.000000 0.900000 0.000000
1.836667 0.139024 0.000000 0.000000 0.900000 0.000000
1.963333 0.139024 0.000000 0.000000 0.900000 0.000000
2.090000 0.139024 0.000000 -0.000000 0.900000 0.000000
2.216667 0.139024 0.000000 -0.000000 0.900000 0.000000
2.343333 0.139024 0.000000 -0.000000 0.900000 0.000000
2.470000 0.139024 0.000000 -0.000000 0.900000 0.000000
2.596667 0.139024 0.000000 -0.000000 0.900000 0.000000
2.723333 0.139024 0.000000 -0.000000 0.900000 0.000000
2.850000 0.139024 0.000000 -0.000000 0.900000 0.000000
2.976667 0.139024 0.000000 -0.000000 0.900000 0.000000
3.103333 0.139024 0.000000 -0.000000 0.900000 0.000000
3.230000 0.139024 0.000000 -0.000000 0.900000 0.000000
3.356667 0.139024 0.000000 -0.000000 0.900000 0.000000
3.483333 0.139024 0.000000 0.000000 0.900000 0.000000
3.610000 0.139024 0.000000 0.000000 0.900000 0.000000
3.736667 0.139024 0.000000 0.000000 0.000000 0.000000
0.063333 0.153659 0.000000 0.000000 0.000000 0.000000
0.190000 0.153659 -0.000000 0.000000 0.900000 0.000000
0.316667 0.153659 -0.000000 0.000000 0.900000 0.000000
0.443333 0.153659 -0.000000 -0.000000 0.900000 0.000000
0.570000 0.153659 -0.000000 -0.000000 0.900000 0.000000
0.696667 0.153659 0.000000 -0.000000 0.900000 0.000000
0.823333 0.153659 0.000000 -0.000000 0.900000 0.000000
0.950000 0.153659 0.000000 -0.000000 0.900000 0.000000
1.076667 0.153659 0.000000 -0.000000 0.900000 0.000000
1.203333 0.153659 0.000000 -0.000000 0.900000 0.000000
1.330000 0.153659 0.000000 -0.000000 0.900000 0.000000
1.456667 0.153659 0.000000 -0.000000 0.900000 0.000000
1.583333 0.153659 0.000000 -0.000000 0.900000 0.000000
1.710000 0.153659 0.000000 -0.000000 0.900000 0.000000
1.836667 0.153659 0.000000 0.000000 0.900000 0.000000
1.963333 0.153659 0.000000 0.000000 0.900000 0.000000
2.090000 0.153659 0.000000 -0.000000 0.900000 0.000000
2.216667 0.153659 0.000000 -0.000000 0.900000 0.000000
2.343333 0.153659 0.000000 -0.000000 0.900000 0.000000
2.470000 0.153659 0.000000 -0.000000 0.900000 0.000000
2.596667 0.153659 0.000000 -0.000000 0.900000 0.000000
2.723333 0.153659 0.000000 -0.000000 0.900000 0.000000
2.850000 0.153659 0.000000 -0.000000 0.900000 0.000000
2.976667 0.153659 0.000000 -0.000000 0.900000 0.000000
3.103333 0.153659 0.000000 -0.000000 0.900000 0.000000
3.230000 0.153659 0.000000 -0.000000 0.900000 0.000000
3.356667 0.153659 0.000000 -0.000000 0.900000 0.000000
3.483333 0.153659 0.000000 0.000000 0.900000 0.000000
3.610000 0.153659 0.000000 0.000000 0.900000 0.000000
3.736667 0.153659 0.000000 0.000000 0.000000 0.000000
0.063333 0.168293 0.000000 0.000000 0.000000 0.000000
0.190000 0.168293 -0.000000 0.000000 0.900000 0.000000
0.316667 0.168293 -0.000000 0.000000 0.900000 0.000000
0.443333 0.168293 -0.000000 -0.000000 0.900000 0.000000
0.570000 0.168293 -0.000000 -0.000000 0.900000 0.000000
0.696667 0.168293 0.000000 -0.000000 0.900000 0.000000
0.823333 0.168293 0.000000 -0.000000 0.900000 0.000000
0.950000 0.168293 0.000000 -0.000000 0.900000 0.000000
1.076667 0.168293 0.000000 -0.000000 0.900000 0.000000
1.203333 0.168293 0.000000 -0.000000 0.900000 0.000000
1.330000 0.168293 0.000000 -0.000000 0.900000 0.000000
1.456667 0.168293 0.000000 -0.000000 0.900000 0.000000
1.583333 0.168293 0.000000 -0.000000 0.900000 0.000000
1.710000 0.168293 0.000000 -0.000000 0.900000 0.000000
1.836667 0.168293 0.000000 0.000000 0.900000 0.000000
1.963333 0.168293 0.000000 0.000000 0.900000 0.000000
2.090000 0.168293 0.000000 -0.000000 0.900000 0.000000
2.216667 0.168293 0.000000 -0.000000 0.900000 0.000000
2.343333 0.168293 0.000000 -0.000000 0.899999 0.000000
2.470000 0.168293 0.000000 -0.000000 0.899999 0.000000
2.596667 0.168293 0.000000 -0.000000 0.899999 0.000000
2.723333 0.168293 0.000000 -0.000000 0.899999 0.000000
2.850000 0.168293 0.000000 -0.000000 0.899997 0.000000
2.976667 0.168293 0.000000 -0.000000 0.899997 0.000000
3.103333 0.168293 0.000000 -0.000000 0.899998 0.000000
3.230000 0.168293 0.000000 -0.000000 0.899998 0.000000
3.356667 0.168293 0.000000 -0.000000 0.900000 0.000000
3.483333 0.168293 0.000000 0.000000 0.900000 0.000000
3.610000 0.168293 0.000000 0.000000 0.900000 0.000000
3.736667 0.168293 0.000000 0.000000 0.000000 0.000000
0.063333 0.182927 0.000000 0.000000 0.000000 0.000000
0.190000 0.182927 -0.000000 0.000000 0.900000 0.000000
0.316667 0.182927 -0.000000 0.000000 0.899999 0.000000
0.443333 0.182927 -0.000000 -0.000000 0.899994 0.000000
0.570000 0.182927 -0.000000 -0.000000 0.899996 0.000000
0.696667 0.182927 0.000000 -0.000000 0.899996 0.000000
0.823333 0.182927 0.000000 -0.000000 0.899996 0.000000
0.950000 0.182927 0.000000 -0.000000 0.899996 0.000000
1.076667 0.182927 0.000000 -0.000000 0.899995 0.000000
1.203333 0.182927 0.000000 -0.000000 0.899996 0.000000
1.330000 0.182927 0.000000 -0.000000 0.899998 0.000000
1.456667 0.182927 0.000000 -0.000000 0.899999 0.000000
1.583333 0.182927 0.000000 -0.000000 0.899998 0.000000
1.710000 0.182927 0.000000 -0.000000 0.900000 0.000000
1.836667 0.182927 0.000000 0.000000 0.900000 0.000000
1.963333 0.182927 0.000000 0.000000 0.900000 0.000000
2.090000 0.182927 0.000000 -0.000000 0.899999 0.000000
2.216667 0.182927 0.000000 -0.000000 0.899985 0.000000
2.343333 0.182927 0.000001 -0.000000 0.899971 0.000001
2.470000 0.182927 0.000001 -0.000000 0.899964 0.000001
2.596667 0.182927 0.000001 -0.000000 0.899953 0.000001
2.723333 0.182927 0.000002 -0.000000 0.899944 0.000002
2.850000 0.182927 0.000003 -0.000001 0.899901 0.000003
2.976667 0.182927 0.000005 -0.000001 0.899859 0.000005
3.103333 0.182927 0.000005 -0.000000 0.899863 0.000005
3.230000 0.182927 0.000003 -0.000000 0.899894 0.000003
3.356667 0.182927 0.000000 -0.000000 0.899996 0.000000
3.483333 0.182927 0.000000 0.000000 0.900000 0.000000
3.610000 0.182927 0.000000 0.000000 0.900000 0.000000
3.736667 0.182927 0.000000 0.000000 0.000000 0.000000
0.063333 0.197561 0.000000 0.000000 0.000000 0.000000
0.190000 0.197561 -0.000000 0.000000 0.899999 0.000000
0.316667 0.197561 -0.000001 0.000000 0.899948 0.000001
0.443333 0.197561 -0.000002 -0.000001 0.899822 0.000002
0.570000 0.197561 -0.000001 -0.000001 0.899879 0.000001
0.696667 0.197561 0.000000 -0.000001 0.899870 0.000001
0.823333 0.197561 0.000001 -0.000001 0.899873 0.000001
0.950000 0.197561 0.000002 -0.000001 0.899881 0.000002
1.076667 0.197561 0.000003 -0.000002 0.899850 0.000003
1.203333 0.197561 0.000002 -0.000001 0.899875 0.000003
1.330000 0.197561 0.000001 -0.000001 0.899941 0.000001
1.456667 0.197561 0.000001 -0.000000 0.899952 0.000001
1.583333 0.197561 0.000001 -0.000001 0.899940 0.000001
1.710000 0.197561 0.000001 -0.000000 0.899973 0.000001
1.836667 0.197561 0.000000 0.000000 0.900000 0.000000
1.963333 0.197561 0.000000 0.000000 0.900000 0.000000
2.090000 0.197561 0.000002 -0.000000 0.899898 0.000002
2.216667 0.197561 0.000012 -0.000004 0.899442 0.000012
2.343333 0.197561 0.000020 -0.000007 0.899104 0.000021
2.470000 0.197561 0.000027 -0.000008 0.898897 0.000028
2.596667 0.197561 0.000035 -0.000011 0.898632 0.000037
2.723333 0.197561 0.000045 -0.000012 0.898364 0.000046
2.850000 0.197561 0.000072 -0.000020 0.897588 0.000074
2.976667 0.197561 0.000130 -0.000019 0.896030 0.000131
3.103333 0.197561 0.000172 -0.000017 0.895057 0.000173
3.230000 0.197561 0.000154 -0.000014 0.895327 0.000155
3.356667 0.197561 0.000018 -0.000000 0.899348 0.000018
3.483333 0.197561 0.000000 0.000000 0.899992 0.000000
3.610000 0.197561 0.000001 0.000001 0.899925 0.000001
3.736667 0.197561 0.000000 0.000000 0.000000 0.000000
0.063333 0.212195 0.000000 0.000000 0.000000 0.000000
0.190000 0.212195 -0.000001 0.000001 0.899946 0.000001
0.316667 0.212195 -0.000044 0.000001 0.897355 0.000044
0.443333 0.212195 -0.000037 -0.000027 0.896388 0.000046
0.570000 0.212195 -0.000013 -0.000026 0.897390 0.000029
0.696667 0.212195 -0.000000 -0.000027 0.897149 0.000027
0.823333 0.212195 0.000019 -0.000027 0.897191 0.000033
0.950000 0.212195 0.000033 -0.000028 0.897376 0.000043
1.076667 0.212195 0.000051 -0.000037 0.896947 0.000063
1.203333 0.212195 0.000054 -0.000031 0.897301 0.000062
1.330000 0.212195 0.000034 -0.000018 0.898375 0.000038
1.456667 0.212195 0.000029 -0.000015 0.898574 0.000033
1.583333 0.212195 0.000034 -0.000017 0.898352 0.000038
1.710000 0.212195 0.000028 -0.000006 0.898652 0.000028
1.836667 0.212195 0.000000 0.000000 0.899986 0.000000
1.963333 0.212195 0.000000 0.000000 0.900000 0.000000
2.090000 0.212195 0.000095 -0.000017 0.895137 0.000097
2.216667 0.212195 0.000262 -0.000095 0.887057 0.000278
2.343333 0.212195 0.000398 -0.000150 0.881988 0.000426
2.470000 0.212195 0.000515 -0.000174 0.878316 0.000544
2.596667 0.212195 0.000645 -0.000211 0.874244 0.000679
2.723333 0.212195 0.000798 -0.000234 0.869658 0.000832
2.850000 0.212195 0.000750 -0.000286 0.864404 0.000803
2.976667 0.212195 0.001020 -0.000329 0.841359 0.001072
3.103333 0.212195 0.001831 -0.000367 0.817055 0.001867
3.230000 0.212195 0.002394 -0.000318 0.794449 0.002415
3.356667 0.212195 0.002126 -0.000034 0.772663 0.002126
3.483333 0.212195 0.001486 0.000587 0.745952 0.001598
3.610000 0.212195 0.000569 0.001945 0.730779 0.002026
3.736667 0.212195 0.000000 0.000000 0.000000 0.000000
0.063333 0.226829 0.000000 0.000000 0.000000 0.000000
0.190000 0.226829 0.000323 0.001430 0.818426 0.001466
0.316667 0.226829 0.000333 0.000031 0.844532 0.000335
0.443333 0.226829 0.000055 -0.000323 0.855933 0.000328
0.570000 0.226829 -0.000113 -0.000361 0.862751 0.000378
0.696667 0.226829 -0.000020 -0.000399 0.860063 0.000400
0.823333 0.226829 0.000284 -0.000411 0.860912 0.000500
0.950000 0.226829 0.000465 -0.000415 0.863124 0.000623
1.076667 0.226829 0.000659 -0.000508 0.860411 0.000832
1.203333 0.226829 0.000800 -0.000463 0.862394 0.000924
1.330000 0.226829 0.000647 -0.000326 0.870799 0.000725
1.456667 0.226829 0.000543 -0.000298 0.872186 0.000619
1.583333 0.226829 0.000397 -0.000289 0.870705 0.000491
1.710000 0.226829 0.000333 -0.000184 0.862868 0.000380
1.836667 0.226829 0.000391 0.000049 0.854558 0.000394
1.963333 0.226829 0.000506 0.000130 0.829063 0.000523
2.090000 0.226829 0.000950 -0.000454 0.785565 0.001053
2.216667 0.226829 0.002129 -0.001219 0.749863 0.002454
2.343333 0.226829 0.003693 -0.001656 0.720183 0.004047
2.470000 0.226829 0.005382 -0.001869 0.690700 0.005697
2.596667 0.226829 0.007137 -0.002139 0.661461 0.007451
2.723333 0.226829 0.008852 -0.002355 0.632162 0.009160
2.850000 0.226829 0.008315 -0.002101 0.603496 0.008576
2.976667 0.226829 0.006458 -0.001935 0.600140 0.006742
3.103333 0.226829 0.006538 -0.001618 0.600004 0.006735
3.230000 0.226829 0.005598 -0.000889 0.600000 0.005669
3.356667 0.226829 0.002444 0.000153 0.601910 0.002449
3.483333 0.226829 -0.000407 0.001150 0.605919 0.001220
3.610000 0.226829 -0.000580 0.003135 0.614890 0.003189
3.736667 0.226829 0.000000 0.000000 0.000000 0.000000
0.063333 0.241463 0.000000 0.000000 0.000000 0.000000
0.190000 0.241463 0.003945 0.003980 0.646738 0.005604
0.316667 0.241463 0.008801 0.000397 0.601288 0.008810
0.443333 0.241463 0.006751 -0.001761 0.601365 0.006977
0.570000 0.241463 0.004091 -0.002586 0.612583 0.004840
0.696667 0.241463 0.003499 -0.002953 0.625608 0.004579
0.823333 0.241463 0.004169 -0.003026 0.634973 0.005151
0.950000 0.241463 0.004350 -0.003071 0.640620 0.005325
1.076667 0.241463 0.004239 -0.003483 0.645069 0.005486
1.203333 0.241463 0.004366 -0.003397 0.641852 0.005532
1.330000 0.241463 0.004306 -0.003085 0.630694 0.005297
1.456667 0.241463 0.004130 -0.003091 0.617663 0.005158
1.583333 0.241463 0.003699 -0.002740 0.602744 0.004603
1.710000 0.241463 0.003995 -0.001626 0.601822 0.004313
1.836667 0.241463 0.003500 0.000461 0.614773 0.003531
1.963333 0.241463 0.001382 0.000717 0.611180 0.001557
2.090000 0.241463 0.001643 -0.001428 0.600279 0.002177
2.216667 0.241463 0.003733 -0.002730 0.600120 0.004624
2.343333 0.241463 0.004819 -0.002993 0.600031 0.005673
2.470000 0.241463 0.005177 -0.002908 0.600002 0.005938
2.596667 0.241463 0.005263 -0.002865 0.600000 0.005992
2.723333 0.241463 0.005070 -0.002880 0.600000 0.005831
2.850000 0.241463 0.005312 -0.002126 0.600000 0.005722
2.976667 0.241463 0.005916 -0.002148 0.600000 0.006294
3.103333 0.241463 0.006287 -0.001846 0.600000 0.006553
3.230000 0.241463 0.005641 -0.000844 0.600000 0.005704
3.356667 0.241463 0.002815 0.000474 0.600030 0.002854
3.483333 0.241463 0.000132 0.001175 0.600130 0.001183
3.610000 0.241463 -0.000269 0.003002 0.600856 0.003014
3.736667 0.241463 0.000000 0.000000 0.000000 0.000000
0.063333 0.256098 0.000000 0.000000 0.000000 0.000000
0.190000 0.256098 0.002873 0.003965 0.604820 0.004897
0.316667 0.256098 0.006833 0.000502 0.600060 0.006852
0.443333 0.256098 0.007521 -0.001419 0.600001 0.007653
0.570000 0.256098 0.006667 -0.002478 0.600000 0.007112
0.696667 0.256098 0.006277 -0.003370 0.600000 0.007124
0.823333 0.256098 0.006365 -0.003594 0.600000 0.007310
0.950000 0.256098 0.006113 -0.003674 0.600000 0.007133
1.076667 0.256098 0.005151 -0.004177 0.600000 0.006632
1.203333 0.256098 0.003617 -0.004049 0.600008 0.005430
1.330000 0.256098 0.002420 -0.003526 0.600070 0.004277
1.456667 0.256098 0.001697 -0.003385 0.600082 0.003787
1.583333 0.256098 0.002051 -0.002861 0.600009 0.003520
1.710000 0.256098 0.004136 -0.001952 0.600005 0.004574
1.836667 0.256098 0.003804 0.000903 0.600547 0.003910
1.963333 0.256098 0.001022 0.001074 0.600338 0.001482
2.090000 0.256098 0.001521 -0.001740 0.600002 0.002311
2.216667 0.256098 0.003810 -0.002958 0.600000 0.004823
2.343333 0.256098 0.004828 -0.003105 0.600000 0.005740
2.470000 0.256098 0.005196 -0.003002 0.600000 0.006001
2.596667 0.256098 0.005367 -0.002908 0.600000 0.006104
2.723333 0.256098 0.005266 -0.002970 0.600000 0.006046
2.850000 0.256098 0.005370 -0.002353 0.600000 0.005862
2.976667 0.256098 0.005780 -0.002348 0.600000 0.006238
3.103333 0.256098 0.006106 -0.002044 0.600000 0.006439
3.230000 0.256098 0.005565 -0.000821 0.600000 0.005625
3.356667 0.256098 0.002951 0.000775 0.600000 0.003051
3.483333 0.256098 0.000400 0.001160 0.600002 0.001227
3.610000 0.256098 -0.000122 0.002782 0.600031 0.002784
3.736667 0.256098 0.000000 0.000000 0.000000 0.000000
0.063333 0.270732 0.000000 0.000000 0.000000 0.000000
0.190000 0.270732 0.002554 0.003599 0.600304 0.004413
0.316667 0.270732 0.006256 0.000414 0.600003 0.006270
0.443333 0.270732 0.007285 -0.001276 0.600000 0.007395
0.570000 0.270732 0.006720 -0.002292 0.600000 0.007100
0.696667 0.270732 0.006423 -0.003435 0.600000 0.007284