TITLE="(Vx,Vy)"
VARIABLES=X,Y,Vx,Vy,Vm,V
ZONE T="T-Dummy" I=30, J=41, F=POINT
0.063333 0.007317 0.000000 0.000000 0.000000 0.000000
0.190000 0.007317 0.000000 0.000000 0.000000 0.000000
0.316667 0.007317 0.000000 0.000000 0.000000 0.000000
0.443333 0.007317 0.000000 0.000000 0.000000 0.000000
0.570000 0.007317 0.000000 0.000000 0.000000 0.000000
0.696667 0.007317 0.000000 0.000000 0.000000 0.000000
0.823333 0.007317 0.000000 0.000000 0.000000 0.000000
0.950000 0.007317 0.000000 0.000000 0.000000 0.000000
1.076667 0.007317 0.000000 0.000000 0.000000 0.000000
1.203333 0.007317 0.000000 0.000000 0.000000 0.000000
1.330000 0.007317 0.000000 0.000000 0.000000 0.000000
1.456667 0.007317 0.000000 0.000000 0.000000 0.000000
1.583333 0.007317 0.000000 0.000000 0.000000 0.000000
1.710000 0.007317 0.000000 0.000000 0.000000 0.000000
1.836667 0.007317 0.000000 0.000000 0.000000 0.000000
1.963333 0.007317 0.000000 0.000000 0.000000 0.000000
2.090000 0.007317 0.000000 0.000000 0.000000 0.000000
2.216667 0.007317 0.000000 0.000000 0.000000 0.000000
2.343333 0.007317 0.000000 0.000000 0.000000 0.000000
2.470000 0.007317 0.000000 0.000000 0.000000 0.000000
2.596667 0.007317 0.000000 0.000000 0.000000 0.000000
2.723333 0.007317 0.000000 0.000000 0.000000 0.000000
2.850000 0.007317 0.000000 0.000000 0.000000 0.000000
2.976667 0.007317 0.000000 0.000000 0.000000 0.000000
3.103333 0.007317 0.000000 0.000000 0.000000 0.000000
3.230000 0.007317 0.000000 0.000000 0.000000 0.000000
3.356667 0.007317 0.000000 0.000000 0.000000 0.000000
3.483333 0.007317 0.000000 0.000000 0.000000 0.000000
3.610000 0.007317 0.000000 0.000000 0.000000 0.000000
3.736667 0.007317 0.000000 0.000000 0.000000 0.000000
0.063333 0.021951 0.000000 0.000000 0.000000 0.000000
0.190000 0.021951 -0.000000 0.000000 0.900000 0.000000
0.316667 0.021951 -0.000000 0.000000 0.900000 0.000000
0.443333 0.021951 -0.000000 -0.000000 0.900000 0.000000
0.570000 0.021951 -0.000000 0.000000 0.900000 0.000000
0.696667 0.021951 -0.000000 0.000000 0.900000 0.000000
0.823333 0.021951 -0.000000 0.000000 0.900000 0.000000
0.950000 0.021951 -0.000000 0.000000 0.900000 0.000000
1.076667 0.021951 -0.000000 0.000000 0.900000 0.000000
1.203333 0.021951 -0.000000 0.000000 0.900000 0.000000
1.330000 0.021951 -0.000000 0.000000 0.900000 0.000000
1.456667 0.021951 -0.000000 0.000000 0.900000 0.000000
1.583333 0.021951 -0.000000 0.000000 0.900000 0.000000
1.710000 0.021951 -0.000000 0.000000 0.900000 0.000000
1.836667 0.021951 -0.000000 0.000000 0.900000 0.000000
1.963333 0.021951 -0.000000 0.000000 0.900000 0.000000
2.090000 0.021951 -0.000000 0.000000 0.900000 0.000000
2.216667 0.021951 -0.000000 0.000000 0.900000 0.000000
2.343333 0.021951 -0.000000 0.000000 0.900000 0.000000
2.470000 0.021951 -0.000000 0.000000 0.900000 0.000000
2.596667 0.021951 -0.000000 0.000000 0.900000 0.000000
2.723333 0.021951 -0.000000 0.000000 0.900000 0.000000
2.850000 0.021951 -0.000000 0.000000 0.900000 0.000000
2.976667 0.021951 -0.000000 0.000000 0.900000 0.000000
3.103333 0.021951 -0.000000 0.000000 0.900000 0.000000
3.230000 0.021951 -0.000000 0.000000 0.900000 0.000000
3.356667 0.021951 -0.000000 -0.000000 0.900000 0.000000
3.483333 0.021951 -0.000000 -0.000000 0.900000 0.000000
3.610000 0.021951 -0.000000 -0.000000 0.900000 0.000000
3.736667 0.021951 0.000000 0.000000 0.000000 0.000000
0.063333 0.036585 0.000000 0.000000 0.000000 0.000000
0.190000 0.036585 -0.000000 0.000000 0.900000 0.000000
0.316667 0.036585 -0.000000 0.000000 0.900000 0.000000
0.443333 0.036585 -0.000000 -0.000000 0.900000 0.000000
0.570000 0.036585 -0.000000 0.000000 0.900000 0.000000
0.696667 0.036585 -0.000000 0.000000 0.900000 0.000000
0.823333 0.036585 -0.000000 0.000000 0.900000 0.000000
0.950000 0.036585 -0.000000 0.000000 0.900000 0.000000
1.076667 0.036585 -0.000000 0.000000 0.900000 0.000000
1.203333 0.036585 -0.000000 0.000000 0.900000 0.000000
1.330000 0.036585 -0.000000 0.000000 0.900000 0.000000
1.456667 0.036585 -0.000000 0.000000 0.900000 0.000000
1.583333 0.036585 -0.000000 0.000000 0.900000 0.000000
1.710000 0.036585 -0.000000 0.000000 0.900000 0.000000
1.836667 0.036585 -0.000000 0.000000 0.900000 0.000000
1.963333 0.036585 -0.000000 0.000000 0.900000 0.000000
2.090000 0.036585 -0.000000 0.000000 0.900000 0.000000
2.216667 0.036585 -0.000000 0.000000 0.900000 0.000000
2.343333 0.036585 -0.000000 0.000000 0.900000 0.000000
2.470000 0.036585 -0.000000 0.000000 0.900000 0.000000
2.596667 0.036585 -0.000000 0.000000 0.900000 0.000000
2.723333 0.036585 -0.000000 0.000000 0.900000 0.000000
2.850000 0.036585 -0.000000 0.000000 0.900000 0.000000
2.976667 0.036585 -0.000000 0.000000 0.900000 0.000000
3.103333 0.036585 -0.000000 0.000000 0.900000 0.000000
3.230000 0.036585 -0.000000 -0.000000 0.900000 0.000000
3.356667 0.036585 -0.000000 -0.000000 0.900000 0.000000
3.483333 0.036585 -0.000000 -0.000000 0.900000 0.000000
3.610000 0.036585 -0.000000 -0.000000 0.900000 0.000000
3.736667 0.036585 0.000000 0.000000 0.000000 0.000000
0.063333 0.051220 0.000000 0.000000 0.000000 0.000000
0.190000 0.051220 -0.000000 0.000000 0.900000 0.000000
0.316667 0.051220 -0.000000 0.000000 0.900000 0.000000
0.443333 0.051220 -0.000000 -0.000000 0.900000 0.000000
0.570000 0.051220 -0.000000 -0.000000 0.900000 0.000000
0.696667 0.051220 -0.000000 0.000000 0.900000 0.000000
0.823333 0.051220 -0.000000 0.000000 0.900000 0.000000
0.950000 0.051220 -0.000000 0.000000 0.900000 0.000000
1.076667 0.051220 -0.000000 0.000000 0.900000 0.000000
1.203333 0.051220 -0.000000 0.000000 0.900000 0.000000
1.330000 0.051220 -0.000000 0.000000 0.900000 0.000000
1.456667 0.051220 -0.000000 0.000000 0.900000 0.000000
1.583333 0.051220 -0.000000 0.000000 0.900000 0.000000
1.710000 0.051220 -0.000000 0.000000 0.900000 0.000000
1.836667 0.051220 -0.000000 0.000000 0.900000 0.000000
1.963333 0.051220 -0.000000 0.000000 0.900000 0.000000
2.090000 0.051220 -0.000000 0.000000 0.900000 0.000000
2.216667 0.051220 -0.000000 0.000000 0.900000 0.000000
2.343333 0.051220 -0.000000 0.000000 0.900000 0.000000
2.470000 0.051220 -0.000000 0.000000 0.900000 0.000000
2.596667 0.051220 -0.000000 0.000000 0.900000 0.000000
2.723333 0.051220 -0.000000 0.000000 0.900000 0.000000
2.850000 0.051220 -0.000000 0.000000 0.900000 0.000000
2.976667 0.051220 -0.000000 0.000000 0.900000 0.000000
3.103333 0.051220 -0.000000 0.000000 0.900000 0.000000
3.230000 0.051220 -0.000000 -0.000000 0.900000 0.000000
3.356667 0.051220 -0.000000 -0.000000 0.900000 0.000000
3.483333 0.051220 -0.000000 -0.000000 0.900000 0.000000
3.610000 0.051220 -0.000000 -0.000000 0.900000 0.000000
3.736667 0.051220 0.000000 0.000000 0.000000 0.000000
0.063333 0.065854 0.000000 0.000000 0.000000 0.000000
0.190000 0.065854 -0.000000 0.000000 0.900000 0.000000
0.316667 0.065854 -0.000000 0.000000 0.900000 0.000000
0.443333 0.065854 -0.000000 -0.000000 0.900000 0.000000
0.570000 0.065854 -0.000000 -0.000000 0.900000 0.000000
0.696667 0.065854 -0.000000 0.000000 0.900000 0.000000
0.823333 0.065854 -0.000000 0.000000 0.900000 0.000000
0.950000 0.065854 -0.000000 0.000000 0.900000 0.000000
1.076667 0.065854 -0.000000 0.000000 0.900000 0.000000
1.203333 0.065854 -0.000000 0.000000 0.900000 0.000000
1.330000 0.065854 -0.000000 0.000000 0.900000 0.000000
1.456667 0.065854 -0.000000 0.000000 0.900000 0.000000
1.583333 0.065854 -0.000000 0.000000 0.900000 0.000000
1.710000 0.065854 -0.000000 0.000000 0.900000 0.000000
1.836667 0.065854 -0.000000 0.000000 0.900000 0.000000
1.963333 0.065854 -0.000000 0.000000 0.900000 0.000000
2.090000 0.065854 -0.000000 0.000000 0.900000 0.000000
2.216667 0.065854 -0.000000 0.000000 0.900000 0.000000
2.343333 0.065854 -0.000000 0.000000 0.900000 0.000000
2.470000 0.065854 -0.000000 0.000000 0.900000 0.000000
2.596667 0.065854 -0.000000 0.000000 0.900000 0.000000
2.723333 0.065854 -0.000000 0.000000 0.900000 0.000000
2.850000 0.065854 -0.000000 0.000000 0.900000 0.000000
2.976667 0.065854 -0.000000 0.000000 0.900000 0.000000
3.103333 0.065854 -0.000000 0.000000 0.900000 0.000000
3.230000 0.065854 -0.000000 -0.000000 0.900000 0.000000
3.356667 0.065854 -0.000000 -0.000000 0.900000 0.000000
3.483333 0.065854 -0.000000 -0.000000 0.900000 0.000000
3.610000 0.065854 -0.000000 -0.000000 0.900000 0.000000
3.736667 0.065854 0.000000 0.000000 0.000000 0.000000
0.063333 0.080488 0.000000 0.000000 0.000000 0.000000
0.190000 0.080488 -0.000000 0.000000 0.900000 0.000000
0.316667 0.080488 -0.000000 0.000000 0.900000 0.000000
0.443333 0.080488 -0.000000 -0.000000 0.900000 0.000000
0.570000 0.080488 -0.000000 -0.000000 0.900000 0.000000
0.696667 0.080488 -0.000000 0.000000 0.900000 0.000000
0.823333 0.080488 -0.000000 0.000000 0.900000 0.000000
0.950000 0.080488 -0.000000 0.000000 0.900000 0.000000
1.076667 0.080488 -0.000000 0.000000 0.900000 0.000000
1.203333 0.080488 -0.000000 0.000000 0.900000 0.000000
1.330000 0.080488 -0.000000 0.000000 0.900000 0.000000
1.456667 0.080488 -0.000000 0.000000 0.900000 0.000000
1.583333 0.080488 -0.000000 0.000000 0.900000 0.000000
1.710000 0.080488 -0.000000 0.000000 0.900000 0.000000
1.836667 0.080488 -0.000000 0.000000 0.900000 0.000000
1.963333 0.080488 -0.000000 0.000000 0.900000 0.000000
2.090000 0.080488 -0.000000 0.000000 0.900000 0.000000
2.216667 0.080488 -0.000000 0.000000 0.900000 0.000000
2.343333 0.080488 -0.000000 0.000000 0.900000 0.000000
2.470000 0.080488 -0.000000 0.000000 0.900000 0.000000
2.596667 0.080488 -0.000000 0.000000 0.900000 0.000000
2.723333 0.080488 -0.000000 0.000000 0.900000 0.000000
2.850000 0.080488 -0.000000 0.000000 0.900000 0.000000
2.976667 0.080488 -0.000000 0.000000 0.900000 0.000000
3.103333 0.080488 -0.000000 0.000000 0.900000 0.000000
3.230000 0.080488 -0.000000 -0.000000 0.900000 0.000000
3.356667 0.080488 -0.000000 -0.000000 0.900000 0.000000
3.483333 0.080488 -0.000000 -0.000000 0.900000 0.000000
3.610000 0.080488 -0.000000 -0.000000 0.900000 0.000000
3.736667 0.080488 0.000000 0.000000 0.000000 0.000000
0.063333 0.095122 0.000000 0.000000 0.000000 0.000000
0.190000 0.095122 -0.000000 0.000000 0.900000 0.000000
0.316667 0.095122 -0.000000 0.000000 0.900000 0.000000
0.443333 0.095122 -0.000000 -0.000000 0.900000 0.000000
0.570000 0.095122 -0.000000 -0.000000 0.900000 0.000000
0.696667 0.095122 -0.000000 0.000000 0.900000 0.000000
0.823333 0.095122 -0.000000 0.000000 0.900000 0.000000
0.950000 0.095122 -0.000000 0.000000 0.900000 0.000000
1.076667 0.095122 -0.000000 0.000000 0.900000 0.000000
1.203333 0.095122 -0.000000 0.000000 0.900000 0.000000
1.330000 0.095122 -0.000000 0.000000 0.900000 0.000000
1.456667 0.095122 -0.000000 0.000000 0.900000 0.000000
1.583333 0.095122 -0.000000 0.000000 0.900000 0.000000
1.710000 0.095122 -0.000000 0.000000 0.900000 0.000000
1.836667 0.095122 -0.000000 0.000000 0.900000 0.000000
1.963333 0.095122 -0.000000 0.000000 0.900000 0.000000
2.090000 0.095122 -0.000000 0.000000 0.900000 0.000000
2.216667 0.095122 -0.000000 0.000000 0.900000 0.000000
2.343333 0.095122 -0.000000 0.000000 0.900000 0.000000
2.470000 0.095122 -0.000000 0.000000 0.900000 0.000000
2.596667 0.095122 -0.000000 0.000000 0.900000 0.000000
2.723333 0.095122 -0.000000 0.000000 0.900000 0.000000
2.850000 0.095122 -0.000000 0.000000 0.900000 0.000000
2.976667 0.095122 -0.000000 0.000000 0.900000 0.000000
3.103333 0.095122 -0.000000 0.000000 0.900000 0.000000
3.230000 0.095122 -0.000000 -0.000000 0.900000 0.000000
3.356667 0.095122 -0.000000 -0.000000 0.900000 0.000000
3.483333 0.095122 -0.000000 -0.000000 0.900000 0.000000
3.610000 0.095122 -0.000000 -0.000000 0.900000 0.000000
3.736667 0.095122 0.000000 0.000000 0.000000 0.000000
0.063333 0.109756 0.000000 0.000000 0.000000 0.000000
0.190000 0.109756 -0.000000 0.000000 0.900000 0.000000
0.316667 0.109756 -0.000000 0.000000 0.900000 0.000000
0.443333 0.109756 -0.000000 -0.000000 0.900000 0.000000
0.570000 0.109756 -0.000000 -0.000000 0.900000 0.000000
0.696667 0.109756 -0.000000 0.000000 0.900000 0.000000
0.823333 0.109756 -0.000000 0.000000 0.900000 0.000000
0.950000 0.109756 -0.000000 0.000000 0.900000 0.000000
1.076667 0.109756 -0.000000 0.000000 0.900000 0.000000
1.203333 0.109756 -0.000000 0.000000 0.900000 0.000000
1.330000 0.109756 -0.000000 0.000000 0.900000 0.000000
1.456667 0.109756 -0.000000 0.000000 0.900000 0.000000
1.583333 0.109756 -0.000000 0.000000 0.900000 0.000000
1.710000 0.109756 -0.000000 0.000000 0.900000 0.000000
1.836667 0.109756 -0.000000 0.000000 0.900000 0.000000
1.963333 0.109756 -0.000000 0.000000 0.900000 0.000000
2.090000 0.109756 -0.000000 0.000000 0.900000 0.000000
2.216667 0.109756 -0.000000 0.000000 0.900000 0.000000
2.343333 0.109756 -0.000000 0.000000 0.900000 0.000000
2.470000 0.109756 -0.000000 0.000000 0.900000 0.000000
2.596667 0.109756 -0.000000 0.000000 0.900000 0.000000
2.723333 0.109756 -0.000000 0.000000 0.900000 0.000000
2.850000 0.109756 -0.000000 0.000000 0.900000 0.000000
2.976667 0.109756 -0.000000 0.000000 0.900000 0.000000
3.103333 0.109756 -0.000000 0.000000 0.900000 0.000000
3.230000 0.109756 -0.000000 -0.000000 0.900000 0.000000
3.356667 0.109756 -0.000000 -0.000000 0.900000 0.000000
3.483333 0.109756 -0.000000 -0.000000 0.900000 0.000000
3.610000 0.109756 -0.000000 -0.000000 0.900000 0.000000
3.736667 0.109756 0.000000 0.000000 0.000000 0.000000
0.063333 0.124390 0.000000 0.000000 0.000000 0.000000
0.190000 0.124390 -0.000000 0.000000 0.900000 0.000000
0.316667 0.124390 -0.000000 0.000000 0.900000 0.000000
0.443333 0.124390 -0.000000 -0.000000 0.900000 0.000000
0.570000 0.124390 -0.000000 -0.000000 0.900000 0.000000
0.696667 0.124390 -0.000000 0.000000 0.900000 0.000000
0.823333 0.124390 -0.000000 0.000000 0.900000 0.000000
0.950000 0.124390 -0.000000 0.000000 0.900000 0.000000
1.076667 0.124390 -0.000000 0.000000 0.900000 0.000000
1.203333 0.124390 -0.000000 0.000000 0.900000 0.000000
1.330000 0.124390 -0.000000 0.000000 0.900000 0.000000
1.456667 0.124390 -0.000000 0.000000 0.900000 0.000000
1.583333 0.124390 -0.000000 0.000000 0.900000 0.000000
1.710000 0.124390 -0.000000 0.000000 0.900000 0.000000
1.836667 0.124390 -0.000000 0.000000 0.900000 0.000000
1.963333 0.124390 -0.000000 0.000000 0.900000 0.000000
2.090000 0.124390 -0.000000 0.000000 0.900000 0.000000
2.216667 0.124390 -0.000000 0.000000 0.900000 0.000000
2.343333 0.124390 -0.000000 0.000000 0.900000 0.000000
2.470000 0.124390 -0.000000 0.000000 0.900000 0.000000
2.596667 0.124390 -0.000000 0.000000 0.900000 0.000000
2.723333 0.124390 -0.000000 0.000000 0.900000 0.000000
2.850000 0.124390 -0.000000 0.000000 0.900000 0.000000
2.976667 0.124390 -0.000000 0.000000 0.900000 0.000000
3.103333 0.124390 -0.000000 0.000000 0.900000 0.000000
3.230000 0.124390 -0.000000 -0.000000 0.900000 0.000000
3.356667 0.124390 -0.000000 -0.000000 0.900000 0.000000
3.483333 0.124390 -0.000000 -0.000000 0.900000 0.000000
3.610000 0.124390 -0.000000 -0.000000 0.900000 0.000000
3.736667 0.124390 0.000000 0.000000 0.000000 0.000000
0.063333 0.139024 0.000000 0.000000 0.000000 0.000000
0.190000 0.139024 -0.000000 0.000000 0.900000 0.000000
0.316667 0.139024 -0.000000 0.000000 0.900000 0.000000
0.443333 0.139024 -0.000000 -0.000000 0.900000 0.000000
0.570000 0.139024 -0.000000 -0.000000 0.900000 0.000000
0.696667 0.139024 -0.000000 0.000000 0.900000 0.000000
0.823333 0.139024 -0.000000 0.000000 0.900000 0.000000
0.950000 0.139024 -0.000000 0.000000 0.900000 0.000000
1.076667 0.139024 -0.000000 0.000000 0.900000 0.000000
1.203333 0.139024 -0.000000 0.000000 0.900000 0.000000
1.330000 0.139024 -0.000000 0.000000 0.900000 0.000000
1.456667 0.139024 -0.000000 0.000000 0.900000 0.000000
1.583333 0.139024 -0.000000 0.000000 0.900000 0.000000
1.710000 0.139024 -0.000000 0.000000 0.900000 0.000000
1.836667 0.139024 -0.000000 0.000000 0.900000 0.000000
1.963333 0.139024 -0.000000 0.000000 0.900000 0.000000
2.090000 0.139024 -0.000000 0.000000 0.900000 0.000000
2.216667 0.139024 -0.000000 0.000000 0.900000 0.000000
2.343333 0.139024 -0.000000 0.000000 0.900000 0.000000
2.470000 0.139024 -0.000000 0.000000 0.900000 0.000000
2.596667 0.139024 -0.000000 0.000000 0.900000 0.000000
2.723333 0.139024 -0.000000 0.000000 0.900000 0.000000
2.850000 0.139024 -0.000000 0.000000 0.900000 0.000000
2.976667 0.139024 -0.000000 0.000000 0.900000 0.000000
3.103333 0.139024 -0.000000 0.000000 0.900000 0.000000
3.230000 0.139024 -0.000000 -0.000000 0.900000 0.000000
3.356667 0.139024 -0.000000 -0.000000 0.900000 0.000000
3.483333 0.139024 -0.000000 -0.000000 0.900000 0.000000
3.610000 0.139024 -0.000000 -0.000000 0.900000 0.000000
3.736667 0.139024 0.000000 0.000000 0.000000 0.000000
0.063333 0.153659 0.000000 0.000000 0.000000 0.000000
0.190000 0.153659 -0.000000 0.000000 0.900000 0.000000
0.316667 0.153659 -0.000000 0.000000 0.900000 0.000000
0.443333 0.153659 -0.000000 -0.000000 0.900000 0.000000
0.570000 0.153659 -0.000000 -0.000000 0.900000 0.000000
0.696667 0.153659 -0.000000 0.000000 0.900000 0.000000
0.823333 0.153659 -0.000000 0.000000 0.900000 0.000000
0.950000 0.153659 -0.000000 0.000000 0.900000 0.000000
1.076667 0.153659 -0.000000 0.000000 0.900000 0.000000
1.203333 0.153659 -0.000000 0.000000 0.900000 0.000000
1.330000 0.153659 -0.000000 0.000000 0.900000 0.000000
1.456667 0.153659 -0.000000 0.000000 0.900000 0.000000
1.583333 0.153659 -0.000000 0.000000 0.900000 0.000000
1.710000 0.153659 -0.000000 0.000000 0.900000 0.000000
1.836667 0.153659 -0.000000 0.000000 0.900000 0.000000
1.963333 0.153659 -0.000000 0.000000 0.900000 0.000000
2.090000 0.153659 -0.000000 0.000000 0.900000 0.000000
2.216667 0.153659 -0.000000 0.000000 0.900000 0.000000
2.343333 0.153659 -0.000000 0.000000 0.900000 0.000000
2.470000 0.153659 -0.000000 0.000000 0.900000 0.000000
2.596667 0.153659 -0.000000 0.000000 0.900000 0.000000
2.723333 0.153659 -0.000000 0.000000 0.900000 0.000000
2.850000 0.153659 -0.000000 0.000000 0.900000 0.000000
2.976667 0.153659 -0.000000 0.000000 0.900000 0.000000
3.103333 0.153659 -0.000000 0.000000 0.900000 0.000000
3.230000 0.153659 -0.000000 -0.000000 0.900000 0.000000
3.356667 0.153659 -0.000000 -0.000000 0.900000 0.000000
3.483333 0.153659 -0.000000 -0.000000 0.900000 0.000000
3.610000 0.153659 -0.000000 -0.000000 0.900000 0.000000
3.736667 0.153659 0.000000 0.000000 0.000000 0.000000
0.063333 0.168293 0.000000 0.000000 0.000000 0.000000
0.190000 0.168293 -0.000000 0.000000 0.900000 0.000000
0.316667 0.168293 -0.000000 0.000000 0.900000 0.000000
0.443333 0.168293 -0.000000 -0.000000 0.899999 0.000000
0.570000 0.168293 -0.000000 -0.000000 0.900000 0.000000
0.696667 0.168293 -0.000000 0.000000 0.900000 0.000000
0.823333 0.168293 -0.000000 0.000000 0.900000 0.000000
0.950000 0.168293 -0.000000 0.000000 0.900000 0.000000
1.076667 0.168293 -0.000000 0.000000 0.900000 0.000000
1.203333 0.168293 -0.000000 0.000000 0.900000 0.000000
1.330000 0.168293 -0.000000 0.000000 0.900000 0.000000
1.456667 0.168293 -0.000000 0.000000 0.900000 0.000000
1.583333 0.168293 -0.000000 0.000000 0.900000 0.000000
1.710000 0.168293 -0.000000 0.000000 0.900000 0.000000
1.836667 0.168293 -0.000000 0.000000 0.900000 0.000000
1.963333 0.168293 -0.000000 0.000000 0.900000 0.000000
2.090000 0.168293 -0.000000 0.000000 0.900000 0.000000
2.216667 0.168293 -0.000000 0.000000 0.900000 0.000000
2.343333 0.168293 -0.000000 0.000000 0.900000 0.000000
2.470000 0.168293 -0.000000 0.000000 0.900000 0.000000
2.596667 0.168293 -0.000000 0.000000 0.900000 0.000000
2.723333 0.168293 -0.000000 0.000000 0.900000 0.000000
2.850000 0.168293 -0.000000 0.000000 0.900000 0.000000
2.976667 0.168293 -0.000000 0.000000 0.900000 0.000000
3.103333 0.168293 -0.000000 0.000000 0.900000 0.000000
3.230000 0.168293 -0.000000 -0.000000 0.900000 0.000000
3.356667 0.168293 -0.000000 -0.000000 0.899998 0.000000
3.483333 0.168293 -0.000000 -0.000000 0.899995 0.000000
3.610000 0.168293 -0.000000 -0.000000 0.899997 0.000000
3.736667 0.168293 0.000000 0.000000 0.000000 0.000000
0.063333 0.182927 0.000000 0.000000 0.000000 0.000000
0.190000 0.182927 -0.000000 0.000000 0.900000 0.000000
0.316667 0.182927 -0.000000 0.000000 0.899999 0.000000
0.443333 0.182927 -0.000002 -0.000000 0.899933 0.000002
0.570000 0.182927 -0.000000 -0.000000 0.899991 0.000000
0.696667 0.182927 -0.000000 0.000000 0.899995 0.000000
0.823333 0.182927 -0.000000 0.000000 0.899996 0.000000
0.950000 0.182927 -0.000000 0.000000 0.899998 0.000000
1.076667 0.182927 -0.000000 0.000000 0.899999 0.000000
1.203333 0.182927 -0.000000 0.000000 0.900000 0.000000
1.330000 0.182927 -0.000000 0.000000 0.900000 0.000000
1.456667 0.182927 -0.000000 0.000000 0.900000 0.000000
1.583333 0.182927 -0.000000 0.000000 0.900000 0.000000
1.710000 0.182927 -0.000000 0.000000 0.900000 0.000000
1.836667 0.182927 -0.000000 0.000000 0.900000 0.000000
1.963333 0.182927 -0.000000 0.000000 0.900000 0.000000
2.090000 0.182927 -0.000000 0.000000 0.900000 0.000000
2.216667 0.182927 -0.000000 0.000000 0.900000 0.000000
2.343333 0.182927 -0.000000 0.000000 0.900000 0.000000
2.470000 0.182927 -0.000000 0.000000 0.900000 0.000000
2.596667 0.182927 -0.000000 0.000000 0.900000 0.000000
2.723333 0.182927 -0.000000 0.000000 0.900000 0.000000
2.850000 0.182927 -0.000000 0.000000 0.900000 0.000000
2.976667 0.182927 -0.000000 0.000000 0.900000 0.000000
3.103333 0.182927 -0.000000 0.000000 0.900000 0.000000
3.230000 0.182927 -0.000000 -0.000000 0.899994 0.000000
3.356667 0.182927 -0.000002 -0.000001 0.899881 0.000002
3.483333 0.182927 -0.000002 -0.000001 0.899811 0.000002
3.610000 0.182927 -0.000000 -0.000001 0.899861 0.000001
3.736667 0.182927 0.000000 0.000000 0.000000 0.000000
0.063333 0.197561 0.000000 0.000000 0.000000 0.000000
0.190000 0.197561 -0.000000 0.000000 0.899999 0.000000
0.316667 0.197561 -0.000002 0.000000 0.899894 0.000002
0.443333 0.197561 -0.000124 -0.000007 0.895010 0.000124
0.570000 0.197561 -0.000038 -0.000001 0.898718 0.000038
0.696667 0.197561 -0.000042 0.000001 0.898755 0.000042
0.823333 0.197561 -0.000030 0.000001 0.899142 0.000030
0.950000 0.197561 -0.000011 0.000001 0.899695 0.000011
1.076667 0.197561 -0.000004 0.000000 0.899896 0.000004
1.203333 0.197561 -0.000001 0.000000 0.899955 0.000001
1.330000 0.197561 -0.000000 0.000000 0.899996 0.000000
1.456667 0.197561 -0.000000 0.000000 0.899999 0.000000
1.583333 0.197561 -0.000000 0.000000 0.900000 0.000000
1.710000 0.197561 -0.000000 0.000000 0.900000 0.000000
1.836667 0.197561 -0.000000 0.000000 0.900000 0.000000
1.963333 0.197561 -0.000000 0.000000 0.900000 0.000000
2.090000 0.197561 -0.000000 0.000000 0.899999 0.000000
2.216667 0.197561 -0.000000 0.000000 0.900000 0.000000
2.343333 0.197561 -0.000000 0.000000 0.899998 0.000000
2.470000 0.197561 -0.000000 0.000000 0.899989 0.000000
2.596667 0.197561 -0.000001 0.000000 0.899977 0.000001
2.723333 0.197561 -0.000002 0.000000 0.899930 0.000002
2.850000 0.197561 -0.000003 0.000000 0.899892 0.000003
2.976667 0.197561 -0.000002 0.000000 0.899915 0.000002
3.103333 0.197561 -0.000001 0.000000 0.899971 0.000001
3.230000 0.197561 -0.000011 -0.000001 0.899383 0.000012
3.356667 0.197561 -0.000058 -0.000019 0.896120 0.000061
3.483333 0.197561 -0.000042 -0.000031 0.895061 0.000052
3.610000 0.197561 -0.000010 -0.000022 0.895819 0.000024
3.736667 0.197561 0.000000 0.000000 0.000000 0.000000
0.063333 0.212195 0.000000 0.000000 0.000000 0.000000
0.190000 0.212195 -0.000361 0.001278 0.717196 0.001328
0.316667 0.212195 -0.001444 0.000263 0.718804 0.001468
0.443333 0.212195 -0.002249 -0.000213 0.733471 0.002259
0.570000 0.212195 -0.002860 0.000041 0.748393 0.002861
0.696667 0.212195 -0.003387 0.000181 0.760837 0.003391
0.823333 0.212195 -0.003449 0.000237 0.770790 0.003457
0.950000 0.212195 -0.003334 0.000310 0.779006 0.003348
1.076667 0.212195 -0.003128 0.000337 0.786087 0.003146
1.203333 0.212195 -0.002909 0.000410 0.791544 0.002937
1.330000 0.212195 -0.002704 0.000491 0.795396 0.002748
1.456667 0.212195 -0.002501 0.000519 0.798175 0.002555
1.583333 0.212195 -0.002314 0.000449 0.800547 0.002357
1.710000 0.212195 -0.002190 0.000305 0.802879 0.002211
1.836667 0.212195 -0.002130 0.000151 0.805117 0.002135
1.963333 0.212195 -0.002076 0.000116 0.808546 0.002079
2.090000 0.212195 -0.002030 0.000213 0.812582 0.002041
2.216667 0.212195 -0.001966 0.000295 0.815995 0.001988
2.343333 0.212195 -0.001859 0.000322 0.819413 0.001886
2.470000 0.212195 -0.001744 0.000289 0.823294 0.001768
2.596667 0.212195 -0.001619 0.000225 0.827339 0.001635
2.723333 0.212195 -0.001487 0.000222 0.830338 0.001504
2.850000 0.212195 -0.001327 0.000254 0.832671 0.001351
2.976667 0.212195 -0.001107 0.000260 0.835445 0.001137
3.103333 0.212195 -0.000880 0.000124 0.839872 0.000889
3.230000 0.212195 -0.000847 -0.000091 0.843867 0.000852
3.356667 0.212195 -0.000904 -0.000341 0.834966 0.000966
3.483333 0.212195 -0.000572 -0.000452 0.832333 0.000729
3.610000 0.212195 -0.000191 -0.000360 0.832796 0.000407
3.736667 0.212195 0.000000 0.000000 0.000000 0.000000
0.063333 0.226829 0.000000 0.000000 0.000000 0.000000
0.190000 0.226829 0.000509 0.001858 0.612445 0.001927
0.316667 0.226829 0.000449 0.000539 0.601778 0.000702
0.443333 0.226829 -0.000735 -0.000282 0.600031 0.000787
0.570000 0.226829 -0.002475 0.000502 0.602316 0.002526
0.696667 0.226829 -0.004268 0.000831 0.603884 0.004348
0.823333 0.226829 -0.005171 0.000987 0.605689 0.005265
0.950000 0.226829 -0.005448 0.001131 0.609029 0.005564
1.076667 0.226829 -0.005461 0.001217 0.611593 0.005595
1.203333 0.226829 -0.005375 0.001397 0.614716 0.005553
1.330000 0.226829 -0.005062 0.001574 0.618274 0.005301
1.456667 0.226829 -0.004494 0.001625 0.620135 0.004779
1.583333 0.226829 -0.003873 0.001441 0.618247 0.004132
1.710000 0.226829 -0.003474 0.001037 0.612535 0.003625
1.836667 0.226829 -0.002985 0.000456 0.605344 0.003020
1.963333 0.226829 -0.002319 0.000359 0.605057 0.002347
2.090000 0.226829 -0.002066 0.000808 0.611121 0.002218
2.216667 0.226829 -0.001998 0.001106 0.615488 0.002283
2.343333 0.226829 -0.001858 0.001257 0.615797 0.002243
2.470000 0.226829 -0.001936 0.001269 0.613041 0.002314
2.596667 0.226829 -0.002294 0.001119 0.610592 0.002552
2.723333 0.226829 -0.002717 0.001156 0.609871 0.002953
2.850000 0.226829 -0.002903 0.001273 0.611236 0.003169
2.976667 0.226829 -0.002684 0.001269 0.612861 0.002969
3.103333 0.226829 -0.002462 0.000731 0.610088 0.002568
3.230000 0.226829 -0.003314 -0.000134 0.600720 0.003317
3.356667 0.226829 -0.003446 -0.001594 0.600000 0.003797
3.483333 0.226829 -0.002204 -0.002003 0.600000 0.002978
3.610000 0.226829 -0.000825 -0.001609 0.600000 0.001808
3.736667 0.226829 0.000000 0.000000 0.000000 0.000000
0.063333 0.241463 0.000000 0.000000 0.000000 0.000000
0.190000 0.241463 0.000055 0.001728 0.600659 0.001729
0.316667 0.241463 -0.000187 0.000532 0.600016 0.000564
0.443333 0.241463 -0.000871 -0.000238 0.600000 0.000903
0.570000 0.241463 -0.002423 0.000882 0.600032 0.002578
0.696667 0.241463 -0.004181 0.001259 0.600073 0.004366
0.823333 0.241463 -0.004988 0.001437 0.600142 0.005191
0.950000 0.241463 -0.005248 0.001587 0.600307 0.005483
1.076667 0.241463 -0.005291 0.001700 0.600472 0.005558
1.203333 0.241463 -0.005205 0.001883 0.600700 0.005535
1.330000 0.241463 -0.004973 0.002045 0.601001 0.005377
1.456667 0.241463 -0.004625 0.002066 0.601164 0.005065
1.583333 0.241463 -0.004276 0.001827 0.600937 0.004650
1.710000 0.241463 -0.004040 0.001290 0.600437 0.004241
1.836667 0.241463 -0.003253 0.000326 0.600064 0.003270
1.963333 0.241463 -0.002032 0.000252 0.600058 0.002047
2.090000 0.241463 -0.001605 0.001065 0.600336 0.001926
2.216667 0.241463 -0.001785 0.001473 0.600631 0.002314
2.343333 0.241463 -0.001953 0.001672 0.600657 0.002571
2.470000 0.241463 -0.002122 0.001728 0.600470 0.002736
2.596667 0.241463 -0.002398 0.001607 0.600329 0.002887
2.723333 0.241463 -0.002707 0.001642 0.600287 0.003166
2.850000 0.241463 -0.002820 0.001722 0.600344 0.003304
2.976667 0.241463 -0.002736 0.001659 0.600418 0.003199
3.103333 0.241463 -0.002908 0.001106 0.600267 0.003111
3.230000 0.241463 -0.003670 0.000287 0.600006 0.003682
3.356667 0.241463 -0.003443 -0.001578 0.600000 0.003788
3.483333 0.241463 -0.002132 -0.001938 0.600000 0.002881
3.610000 0.241463 -0.000781 -0.001566 0.600000 0.001750
3.736667 0.241463 0.000000 0.000000 0.000000 0.000000
0.063333 0.256098 0.000000 0.000000 0.000000 0.000000
0.190000 0.256098 -0.000052 0.001597 0.600022 0.001598
0.316667 0.256098 -0.000398 0.000488 0.600000 0.000630
0.443333 0.256098 -0.001019 -0.000225 0.600000 0.001044
0.570000 0.256098 -0.002482 0.001234 0.600000 0.002772
0.696667 0.256098 -0.004192 0.001638 0.600001 0.004501
0.823333 0.256098 -0.004970 0.001835 0.600003 0.005298
0.950000 0.256098 -0.005222 0.002010 0.600009 0.005596
1.076667 0.256098 -0.005258 0.002146 0.600016 0.005679
1.203333 0.256098 -0.005158 0.002327 0.600027 0.005659
1.330000 0.256098 -0.004929 0.002470 0.600042 0.005513
1.456667 0.256098 -0.004610 0.002465 0.600051 0.005227
1.583333 0.256098 -0.004295 0.002189 0.600036 0.004821
1.710000 0.256098 -0.004084 0.001531 0.600012 0.004362
1.836667 0.256098 -0.003282 0.000131 0.600000 0.003285
1.963333 0.256098 -0.002016 0.000084 0.600000 0.002018
2.090000 0.256098 -0.001587 0.001327 0.600008 0.002069
2.216667 0.256098 -0.001799 0.001850 0.600020 0.002581
2.343333 0.256098 -0.001989 0.002083 0.600021 0.002880
2.470000 0.256098 -0.002165 0.002149 0.600014 0.003051
2.596667 0.256098 -0.002426 0.002050 0.600008 0.003176
2.723333 0.256098 -0.002710 0.002071 0.600007 0.003410
2.850000 0.256098 -0.002818 0.002121 0.600008 0.003527
2.976667 0.256098 -0.002763 0.002025 0.600011 0.003426
3.103333 0.256098 -0.002950 0.001498 0.600006 0.003309
3.230000 0.256098 -0.003685 0.000646 0.600000 0.003741
3.356667 0.256098 -0.003400 -0.001576 0.600000 0.003747
3.483333 0.256098 -0.002049 -0.001876 0.600000 0.002778
3.610000 0.256098 -0.000740 -0.001513 0.600000 0.001685
3.736667 0.256098 0.000000 0.000000 0.000000 0.000000
0.063333 0.270732 0.000000 0.000000 0.000000 0.000000
0.190000 0.270732 -0.000130 0.001485 0.600001 0.001491
0.316667 0.270732 -0.000575 0.000447 0.600000 0.000728