TITLE="(Vx,Vy)"
VARIABLES=X,Y,Vx,Vy,Vm,V
ZONE T="T-Dummy" I=30, J=41, F=POINT
0.063333 0.007317 0.000000 0.000000 0.000000 0.000000
0.190000 0.007317 0.000000 0.000000 0.000000 0.000000
0.316667 0.007317 0.000000 0.000000 0.000000 0.000000
0.443333 0.007317 0.000000 0.000000 0.000000 0.000000
0.570000 0.007317 0.000000 0.000000 0.000000 0.000000
0.696667 0.007317 0.000000 0.000000 0.000000 0.000000
0.823333 0.007317 0.000000 0.000000 0.000000 0.000000
0.950000 0.007317 0.000000 0.000000 0.000000 0.000000
1.076667 0.007317 0.000000 0.000000 0.000000 0.000000
1.203333 0.007317 0.000000 0.000000 0.000000 0.000000
1.330000 0.007317 0.000000 0.000000 0.000000 0.000000
1.456667 0.007317 0.000000 0.000000 0.000000 0.000000
1.583333 0.007317 0.000000 0.000000 0.000000 0.000000
1.710000 0.007317 0.000000 0.000000 0.000000 0.000000
1.836667 0.007317 0.000000 0.000000 0.000000 0.000000
1.963333 0.007317 0.000000 0.000000 0.000000 0.000000
2.090000 0.007317 0.000000 0.000000 0.000000 0.000000
2.216667 0.007317 0.000000 0.000000 0.000000 0.000000
2.343333 0.007317 0.000000 0.000000 0.000000 0.000000
2.470000 0.007317 0.000000 0.000000 0.000000 0.000000
2.596667 0.007317 0.000000 0.000000 0.000000 0.000000
2.723333 0.007317 0.000000 0.000000 0.000000 0.000000
2.850000 0.007317 0.000000 0.000000 0.000000 0.000000
2.976667 0.007317 0.000000 0.000000 0.000000 0.000000
3.103333 0.007317 0.000000 0.000000 0.000000 0.000000
3.230000 0.007317 0.000000 0.000000 0.000000 0.000000
3.356667 0.007317 0.000000 0.000000 0.000000 0.000000
3.483333 0.007317 0.000000 0.000000 0.000000 0.000000
3.610000 0.007317 0.000000 0.000000 0.000000 0.000000
3.736667 0.007317 0.000000 0.000000 0.000000 0.000000
0.063333 0.021951 0.000000 0.000000 0.000000 0.000000
0.190000 0.021951 -0.000000 0.000000 0.900000 0.000000
0.316667 0.021951 -0.000000 0.000000 0.900000 0.000000
0.443333 0.021951 -0.000000 0.000000 0.900000 0.000000
0.570000 0.021951 -0.000000 0.000000 0.900000 0.000000
0.696667 0.021951 -0.000000 -0.000000 0.900000 0.000000
0.823333 0.021951 -0.000000 -0.000000 0.900000 0.000000
0.950000 0.021951 -0.000000 0.000000 0.900000 0.000000
1.076667 0.021951 -0.000000 -0.000000 0.900000 0.000000
1.203333 0.021951 -0.000000 0.000000 0.900000 0.000000
1.330000 0.021951 -0.000000 0.000000 0.900000 0.000000
1.456667 0.021951 -0.000000 0.000000 0.900000 0.000000
1.583333 0.021951 -0.000000 0.000000 0.900000 0.000000
1.710000 0.021951 -0.000000 0.000000 0.900000 0.000000
1.836667 0.021951 -0.000000 0.000000 0.900000 0.000000
1.963333 0.021951 -0.000000 0.000000 0.900000 0.000000
2.090000 0.021951 -0.000000 0.000000 0.900000 0.000000
2.216667 0.021951 -0.000000 0.000000 0.900000 0.000000
2.343333 0.021951 -0.000000 0.000000 0.900000 0.000000
2.470000 0.021951 -0.000000 0.000000 0.900000 0.000000
2.596667 0.021951 -0.000000 0.000000 0.900000 0.000000
2.723333 0.021951 -0.000000 0.000000 0.900000 0.000000
2.850000 0.021951 -0.000000 0.000000 0.900000 0.000000
2.976667 0.021951 -0.000000 0.000000 0.900000 0.000000
3.103333 0.021951 -0.000000 0.000000 0.900000 0.000000
3.230000 0.021951 -0.000000 0.000000 0.900000 0.000000
3.356667 0.021951 -0.000000 -0.000000 0.900000 0.000000
3.483333 0.021951 -0.000000 -0.000000 0.900000 0.000000
3.610000 0.021951 -0.000000 -0.000000 0.900000 0.000000
3.736667 0.021951 0.000000 0.000000 0.000000 0.000000
0.063333 0.036585 0.000000 0.000000 0.000000 0.000000
0.190000 0.036585 -0.000000 0.000000 0.900000 0.000000
0.316667 0.036585 -0.000000 0.000000 0.900000 0.000000
0.443333 0.036585 -0.000000 0.000000 0.900000 0.000000
0.570000 0.036585 -0.000000 -0.000000 0.900000 0.000000
0.696667 0.036585 -0.000000 -0.000000 0.900000 0.000000
0.823333 0.036585 -0.000000 0.000000 0.900000 0.000000
0.950000 0.036585 -0.000000 -0.000000 0.900000 0.000000
1.076667 0.036585 -0.000000 -0.000000 0.900000 0.000000
1.203333 0.036585 -0.000000 -0.000000 0.900000 0.000000
1.330000 0.036585 -0.000000 0.000000 0.900000 0.000000
1.456667 0.036585 -0.000000 0.000000 0.900000 0.000000
1.583333 0.036585 -0.000000 0.000000 0.900000 0.000000
1.710000 0.036585 -0.000000 0.000000 0.900000 0.000000
1.836667 0.036585 -0.000000 0.000000 0.900000 0.000000
1.963333 0.036585 -0.000000 0.000000 0.900000 0.000000
2.090000 0.036585 -0.000000 0.000000 0.900000 0.000000
2.216667 0.036585 -0.000000 0.000000 0.900000 0.000000
2.343333 0.036585 -0.000000 0.000000 0.900000 0.000000
2.470000 0.036585 -0.000000 0.000000 0.900000 0.000000
2.596667 0.036585 -0.000000 0.000000 0.900000 0.000000
2.723333 0.036585 -0.000000 0.000000 0.900000 0.000000
2.850000 0.036585 -0.000000 0.000000 0.900000 0.000000
2.976667 0.036585 -0.000000 0.000000 0.900000 0.000000
3.103333 0.036585 -0.000000 0.000000 0.900000 0.000000
3.230000 0.036585 -0.000000 -0.000000 0.900000 0.000000
3.356667 0.036585 -0.000000 -0.000000 0.900000 0.000000
3.483333 0.036585 -0.000000 -0.000000 0.900000 0.000000
3.610000 0.036585 -0.000000 -0.000000 0.900000 0.000000
3.736667 0.036585 0.000000 0.000000 0.000000 0.000000
0.063333 0.051220 0.000000 0.000000 0.000000 0.000000
0.190000 0.051220 -0.000000 0.000000 0.900000 0.000000
0.316667 0.051220 -0.000000 0.000000 0.900000 0.000000
0.443333 0.051220 -0.000000 0.000000 0.900000 0.000000
0.570000 0.051220 -0.000000 -0.000000 0.900000 0.000000
0.696667 0.051220 -0.000000 -0.000000 0.900000 0.000000
0.823333 0.051220 -0.000000 0.000000 0.900000 0.000000
0.950000 0.051220 -0.000000 -0.000000 0.900000 0.000000
1.076667 0.051220 -0.000000 -0.000000 0.900000 0.000000
1.203333 0.051220 -0.000000 -0.000000 0.900000 0.000000
1.330000 0.051220 -0.000000 0.000000 0.900000 0.000000
1.456667 0.051220 -0.000000 0.000000 0.900000 0.000000
1.583333 0.051220 -0.000000 0.000000 0.900000 0.000000
1.710000 0.051220 -0.000000 0.000000 0.900000 0.000000
1.836667 0.051220 -0.000000 0.000000 0.900000 0.000000
1.963333 0.051220 -0.000000 0.000000 0.900000 0.000000
2.090000 0.051220 -0.000000 0.000000 0.900000 0.000000
2.216667 0.051220 -0.000000 0.000000 0.900000 0.000000
2.343333 0.051220 -0.000000 0.000000 0.900000 0.000000
2.470000 0.051220 -0.000000 0.000000 0.900000 0.000000
2.596667 0.051220 -0.000000 0.000000 0.900000 0.000000
2.723333 0.051220 -0.000000 0.000000 0.900000 0.000000
2.850000 0.051220 -0.000000 0.000000 0.900000 0.000000
2.976667 0.051220 -0.000000 0.000000 0.900000 0.000000
3.103333 0.051220 -0.000000 0.000000 0.900000 0.000000
3.230000 0.051220 -0.000000 -0.000000 0.900000 0.000000
3.356667 0.051220 -0.000000 -0.000000 0.900000 0.000000
3.483333 0.051220 -0.000000 -0.000000 0.900000 0.000000
3.610000 0.051220 -0.000000 -0.000000 0.900000 0.000000
3.736667 0.051220 0.000000 0.000000 0.000000 0.000000
0.063333 0.065854 0.000000 0.000000 0.000000 0.000000
0.190000 0.065854 -0.000000 0.000000 0.900000 0.000000
0.316667 0.065854 -0.000000 0.000000 0.900000 0.000000
0.443333 0.065854 -0.000000 0.000000 0.900000 0.000000
0.570000 0.065854 -0.000000 -0.000000 0.900000 0.000000
0.696667 0.065854 -0.000000 -0.000000 0.900000 0.000000
0.823333 0.065854 -0.000000 0.000000 0.900000 0.000000
0.950000 0.065854 -0.000000 -0.000000 0.900000 0.000000
1.076667 0.065854 -0.000000 -0.000000 0.900000 0.000000
1.203333 0.065854 -0.000000 -0.000000 0.900000 0.000000
1.330000 0.065854 -0.000000 0.000000 0.900000 0.000000
1.456667 0.065854 -0.000000 0.000000 0.900000 0.000000
1.583333 0.065854 -0.000000 0.000000 0.900000 0.000000
1.710000 0.065854 -0.000000 0.000000 0.900000 0.000000
1.836667 0.065854 -0.000000 0.000000 0.900000 0.000000
1.963333 0.065854 -0.000000 0.000000 0.900000 0.000000
2.090000 0.065854 -0.000000 0.000000 0.900000 0.000000
2.216667 0.065854 -0.000000 0.000000 0.900000 0.000000
2.343333 0.065854 -0.000000 0.000000 0.900000 0.000000
2.470000 0.065854 -0.000000 0.000000 0.900000 0.000000
2.596667 0.065854 -0.000000 0.000000 0.900000 0.000000
2.723333 0.065854 -0.000000 0.000000 0.900000 0.000000
2.850000 0.065854 -0.000000 0.000000 0.900000 0.000000
2.976667 0.065854 -0.000000 0.000000 0.900000 0.000000
3.103333 0.065854 -0.000000 0.000000 0.900000 0.000000
3.230000 0.065854 -0.000000 -0.000000 0.900000 0.000000
3.356667 0.065854 -0.000000 -0.000000 0.900000 0.000000
3.483333 0.065854 -0.000000 -0.000000 0.900000 0.000000
3.610000 0.065854 -0.000000 -0.000000 0.900000 0.000000
3.736667 0.065854 0.000000 0.000000 0.000000 0.000000
0.063333 0.080488 0.000000 0.000000 0.000000 0.000000
0.190000 0.080488 -0.000000 0.000000 0.900000 0.000000
0.316667 0.080488 -0.000000 0.000000 0.900000 0.000000
0.443333 0.080488 -0.000000 0.000000 0.900000 0.000000
0.570000 0.080488 -0.000000 -0.000000 0.900000 0.000000
0.696667 0.080488 -0.000000 -0.000000 0.900000 0.000000
0.823333 0.080488 -0.000000 -0.000000 0.900000 0.000000
0.950000 0.080488 -0.000000 -0.000000 0.900000 0.000000
1.076667 0.080488 -0.000000 -0.000000 0.900000 0.000000
1.203333 0.080488 -0.000000 -0.000000 0.900000 0.000000
1.330000 0.080488 -0.000000 0.000000 0.900000 0.000000
1.456667 0.080488 -0.000000 0.000000 0.900000 0.000000
1.583333 0.080488 -0.000000 0.000000 0.900000 0.000000
1.710000 0.080488 -0.000000 0.000000 0.900000 0.000000
1.836667 0.080488 -0.000000 0.000000 0.900000 0.000000
1.963333 0.080488 -0.000000 0.000000 0.900000 0.000000
2.090000 0.080488 -0.000000 0.000000 0.900000 0.000000
2.216667 0.080488 -0.000000 0.000000 0.900000 0.000000
2.343333 0.080488 -0.000000 0.000000 0.900000 0.000000
2.470000 0.080488 -0.000000 0.000000 0.900000 0.000000
2.596667 0.080488 -0.000000 0.000000 0.900000 0.000000
2.723333 0.080488 -0.000000 0.000000 0.900000 0.000000
2.850000 0.080488 -0.000000 0.000000 0.900000 0.000000
2.976667 0.080488 -0.000000 0.000000 0.900000 0.000000
3.103333 0.080488 -0.000000 0.000000 0.900000 0.000000
3.230000 0.080488 -0.000000 -0.000000 0.900000 0.000000
3.356667 0.080488 -0.000000 -0.000000 0.900000 0.000000
3.483333 0.080488 -0.000000 -0.000000 0.900000 0.000000
3.610000 0.080488 -0.000000 -0.000000 0.900000 0.000000
3.736667 0.080488 0.000000 0.000000 0.000000 0.000000
0.063333 0.095122 0.000000 0.000000 0.000000 0.000000
0.190000 0.095122 -0.000000 0.000000 0.900000 0.000000
0.316667 0.095122 -0.000000 0.000000 0.900000 0.000000
0.443333 0.095122 -0.000000 0.000000 0.900000 0.000000
0.570000 0.095122 -0.000000 -0.000000 0.900000 0.000000
0.696667 0.095122 -0.000000 -0.000000 0.900000 0.000000
0.823333 0.095122 -0.000000 -0.000000 0.900000 0.000000
0.950000 0.095122 -0.000000 -0.000000 0.900000 0.000000
1.076667 0.095122 -0.000000 -0.000000 0.900000 0.000000
1.203333 0.095122 -0.000000 -0.000000 0.900000 0.000000
1.330000 0.095122 -0.000000 0.000000 0.900000 0.000000
1.456667 0.095122 -0.000000 0.000000 0.900000 0.000000
1.583333 0.095122 -0.000000 0.000000 0.900000 0.000000
1.710000 0.095122 -0.000000 0.000000 0.900000 0.000000
1.836667 0.095122 -0.000000 0.000000 0.900000 0.000000
1.963333 0.095122 -0.000000 0.000000 0.900000 0.000000
2.090000 0.095122 -0.000000 0.000000 0.900000 0.000000
2.216667 0.095122 -0.000000 0.000000 0.900000 0.000000
2.343333 0.095122 -0.000000 0.000000 0.900000 0.000000
2.470000 0.095122 -0.000000 0.000000 0.900000 0.000000
2.596667 0.095122 -0.000000 0.000000 0.900000 0.000000
2.723333 0.095122 -0.000000 0.000000 0.900000 0.000000
2.850000 0.095122 -0.000000 0.000000 0.900000 0.000000
2.976667 0.095122 -0.000000 0.000000 0.900000 0.000000
3.103333 0.095122 -0.000000 0.000000 0.900000 0.000000
3.230000 0.095122 -0.000000 -0.000000 0.900000 0.000000
3.356667 0.095122 -0.000000 -0.000000 0.900000 0.000000
3.483333 0.095122 -0.000000 -0.000000 0.900000 0.000000
3.610000 0.095122 -0.000000 -0.000000 0.900000 0.000000
3.736667 0.095122 0.000000 0.000000 0.000000 0.000000
0.063333 0.109756 0.000000 0.000000 0.000000 0.000000
0.190000 0.109756 -0.000000 0.000000 0.900000 0.000000
0.316667 0.109756 -0.000000 0.000000 0.900000 0.000000
0.443333 0.109756 -0.000000 0.000000 0.900000 0.000000
0.570000 0.109756 -0.000000 -0.000000 0.900000 0.000000
0.696667 0.109756 -0.000000 -0.000000 0.900000 0.000000
0.823333 0.109756 -0.000000 -0.000000 0.900000 0.000000
0.950000 0.109756 -0.000000 -0.000000 0.900000 0.000000
1.076667 0.109756 -0.000000 -0.000000 0.900000 0.000000
1.203333 0.109756 -0.000000 -0.000000 0.900000 0.000000
1.330000 0.109756 -0.000000 0.000000 0.900000 0.000000
1.456667 0.109756 -0.000000 0.000000 0.900000 0.000000
1.583333 0.109756 -0.000000 0.000000 0.900000 0.000000
1.710000 0.109756 -0.000000 0.000000 0.900000 0.000000
1.836667 0.109756 -0.000000 0.000000 0.900000 0.000000
1.963333 0.109756 -0.000000 0.000000 0.900000 0.000000
2.090000 0.109756 -0.000000 0.000000 0.900000 0.000000
2.216667 0.109756 -0.000000 0.000000 0.900000 0.000000
2.343333 0.109756 -0.000000 0.000000 0.900000 0.000000
2.470000 0.109756 -0.000000 0.000000 0.900000 0.000000
2.596667 0.109756 -0.000000 0.000000 0.900000 0.000000
2.723333 0.109756 -0.000000 0.000000 0.900000 0.000000
2.850000 0.109756 -0.000000 0.000000 0.900000 0.000000
2.976667 0.109756 -0.000000 0.000000 0.900000 0.000000
3.103333 0.109756 -0.000000 0.000000 0.900000 0.000000
3.230000 0.109756 -0.000000 -0.000000 0.900000 0.000000
3.356667 0.109756 -0.000000 -0.000000 0.900000 0.000000
3.483333 0.109756 -0.000000 -0.000000 0.900000 0.000000
3.610000 0.109756 -0.000000 -0.000000 0.900000 0.000000
3.736667 0.109756 0.000000 0.000000 0.000000 0.000000
0.063333 0.124390 0.000000 0.000000 0.000000 0.000000
0.190000 0.124390 -0.000000 0.000000 0.900000 0.000000
0.316667 0.124390 -0.000000 0.000000 0.900000 0.000000
0.443333 0.124390 -0.000000 0.000000 0.900000 0.000000
0.570000 0.124390 -0.000000 -0.000000 0.900000 0.000000
0.696667 0.124390 -0.000000 -0.000000 0.900000 0.000000
0.823333 0.124390 -0.000000 -0.000000 0.900000 0.000000
0.950000 0.124390 -0.000000 -0.000000 0.900000 0.000000
1.076667 0.124390 -0.000000 -0.000000 0.900000 0.000000
1.203333 0.124390 -0.000000 -0.000000 0.900000 0.000000
1.330000 0.124390 -0.000000 -0.000000 0.900000 0.000000
1.456667 0.124390 -0.000000 0.000000 0.900000 0.000000
1.583333 0.124390 -0.000000 0.000000 0.900000 0.000000
1.710000 0.124390 -0.000000 -0.000000 0.900000 0.000000
1.836667 0.124390 -0.000000 -0.000000 0.900000 0.000000
1.963333 0.124390 -0.000000 0.000000 0.900000 0.000000
2.090000 0.124390 -0.000000 0.000000 0.900000 0.000000
2.216667 0.124390 -0.000000 0.000000 0.900000 0.000000
2.343333 0.124390 -0.000000 0.000000 0.900000 0.000000
2.470000 0.124390 -0.000000 0.000000 0.900000 0.000000
2.596667 0.124390 -0.000000 0.000000 0.900000 0.000000
2.723333 0.124390 -0.000000 0.000000 0.900000 0.000000
2.850000 0.124390 -0.000000 0.000000 0.900000 0.000000
2.976667 0.124390 -0.000000 0.000000 0.900000 0.000000
3.103333 0.124390 -0.000000 0.000000 0.900000 0.000000
3.230000 0.124390 -0.000000 -0.000000 0.900000 0.000000
3.356667 0.124390 -0.000000 -0.000000 0.900000 0.000000
3.483333 0.124390 -0.000000 -0.000000 0.900000 0.000000
3.610000 0.124390 -0.000000 -0.000000 0.900000 0.000000
3.736667 0.124390 0.000000 0.000000 0.000000 0.000000
0.063333 0.139024 0.000000 0.000000 0.000000 0.000000
0.190000 0.139024 -0.000000 0.000000 0.900000 0.000000
0.316667 0.139024 -0.000000 0.000000 0.900000 0.000000
0.443333 0.139024 -0.000000 0.000000 0.900000 0.000000
0.570000 0.139024 -0.000000 -0.000000 0.900000 0.000000
0.696667 0.139024 -0.000000 -0.000000 0.900000 0.000000
0.823333 0.139024 -0.000000 -0.000000 0.900000 0.000000
0.950000 0.139024 -0.000000 -0.000000 0.900000 0.000000
1.076667 0.139024 -0.000000 -0.000000 0.900000 0.000000
1.203333 0.139024 -0.000000 -0.000000 0.900000 0.000000
1.330000 0.139024 -0.000000 -0.000000 0.900000 0.000000
1.456667 0.139024 -0.000000 0.000000 0.900000 0.000000
1.583333 0.139024 -0.000000 0.000000 0.900000 0.000000
1.710000 0.139024 -0.000000 -0.000000 0.900000 0.000000
1.836667 0.139024 -0.000000 -0.000000 0.900000 0.000000
1.963333 0.139024 -0.000000 0.000000 0.900000 0.000000
2.090000 0.139024 -0.000000 0.000000 0.900000 0.000000
2.216667 0.139024 -0.000000 0.000000 0.900000 0.000000
2.343333 0.139024 -0.000000 0.000000 0.900000 0.000000
2.470000 0.139024 -0.000000 0.000000 0.900000 0.000000
2.596667 0.139024 -0.000000 0.000000 0.900000 0.000000
2.723333 0.139024 -0.000000 0.000000 0.900000 0.000000
2.850000 0.139024 -0.000000 0.000000 0.900000 0.000000
2.976667 0.139024 -0.000000 0.000000 0.900000 0.000000
3.103333 0.139024 -0.000000 0.000000 0.900000 0.000000
3.230000 0.139024 -0.000000 -0.000000 0.900000 0.000000
3.356667 0.139024 -0.000000 -0.000000 0.900000 0.000000
3.483333 0.139024 -0.000000 -0.000000 0.900000 0.000000
3.610000 0.139024 -0.000000 -0.000000 0.900000 0.000000
3.736667 0.139024 0.000000 0.000000 0.000000 0.000000
0.063333 0.153659 0.000000 0.000000 0.000000 0.000000
0.190000 0.153659 -0.000000 0.000000 0.900000 0.000000
0.316667 0.153659 -0.000000 0.000000 0.900000 0.000000
0.443333 0.153659 -0.000000 0.000000 0.899999 0.000000
0.570000 0.153659 -0.000000 -0.000000 0.899999 0.000000
0.696667 0.153659 -0.000000 -0.000000 0.899999 0.000000
0.823333 0.153659 -0.000000 -0.000000 0.900000 0.000000
0.950000 0.153659 -0.000000 -0.000000 0.900000 0.000000
1.076667 0.153659 -0.000000 -0.000000 0.900000 0.000000
1.203333 0.153659 -0.000000 -0.000000 0.900000 0.000000
1.330000 0.153659 -0.000000 -0.000000 0.900000 0.000000
1.456667 0.153659 -0.000000 0.000000 0.900000 0.000000
1.583333 0.153659 -0.000000 0.000000 0.900000 0.000000
1.710000 0.153659 -0.000000 -0.000000 0.900000 0.000000
1.836667 0.153659 -0.000000 -0.000000 0.900000 0.000000
1.963333 0.153659 -0.000000 0.000000 0.900000 0.000000
2.090000 0.153659 -0.000000 0.000000 0.900000 0.000000
2.216667 0.153659 -0.000000 0.000000 0.900000 0.000000
2.343333 0.153659 -0.000000 0.000000 0.900000 0.000000
2.470000 0.153659 -0.000000 0.000000 0.900000 0.000000
2.596667 0.153659 -0.000000 0.000000 0.900000 0.000000
2.723333 0.153659 -0.000000 0.000000 0.900000 0.000000
2.850000 0.153659 -0.000000 0.000000 0.900000 0.000000
2.976667 0.153659 -0.000000 0.000000 0.900000 0.000000
3.103333 0.153659 -0.000000 0.000000 0.900000 0.000000
3.230000 0.153659 -0.000000 -0.000000 0.900000 0.000000
3.356667 0.153659 -0.000000 -0.000000 0.900000 0.000000
3.483333 0.153659 -0.000000 -0.000000 0.899999 0.000000
3.610000 0.153659 -0.000000 -0.000000 0.899998 0.000000
3.736667 0.153659 0.000000 0.000000 0.000000 0.000000
0.063333 0.168293 0.000000 0.000000 0.000000 0.000000
0.190000 0.168293 -0.000000 0.000000 0.900000 0.000000
0.316667 0.168293 -0.000000 0.000000 0.899998 0.000000
0.443333 0.168293 -0.000002 0.000000 0.899920 0.000002
0.570000 0.168293 -0.000003 -0.000000 0.899921 0.000003
0.696667 0.168293 -0.000003 -0.000000 0.899929 0.000003
0.823333 0.168293 -0.000001 -0.000000 0.899962 0.000001
0.950000 0.168293 -0.000001 -0.000000 0.899984 0.000001
1.076667 0.168293 -0.000000 -0.000000 0.899987 0.000000
1.203333 0.168293 -0.000000 -0.000000 0.899996 0.000000
1.330000 0.168293 -0.000000 -0.000000 0.900000 0.000000
1.456667 0.168293 -0.000000 0.000000 0.900000 0.000000
1.583333 0.168293 -0.000000 0.000000 0.900000 0.000000
1.710000 0.168293 -0.000000 -0.000000 0.900000 0.000000
1.836667 0.168293 -0.000000 -0.000000 0.900000 0.000000
1.963333 0.168293 -0.000000 -0.000000 0.900000 0.000000
2.090000 0.168293 -0.000000 0.000000 0.900000 0.000000
2.216667 0.168293 -0.000000 0.000000 0.900000 0.000000
2.343333 0.168293 -0.000000 0.000000 0.900000 0.000000
2.470000 0.168293 -0.000000 0.000000 0.900000 0.000000
2.596667 0.168293 -0.000000 0.000000 0.900000 0.000000
2.723333 0.168293 -0.000000 0.000000 0.900000 0.000000
2.850000 0.168293 -0.000000 0.000000 0.900000 0.000000
2.976667 0.168293 -0.000000 0.000000 0.900000 0.000000
3.103333 0.168293 -0.000000 0.000000 0.900000 0.000000
3.230000 0.168293 -0.000000 -0.000000 0.899998 0.000000
3.356667 0.168293 -0.000000 -0.000000 0.899989 0.000000
3.483333 0.168293 -0.000000 -0.000000 0.899969 0.000000
3.610000 0.168293 -0.000000 -0.000001 0.899930 0.000001
3.736667 0.168293 0.000000 0.000000 0.000000 0.000000
0.063333 0.182927 0.000000 0.000000 0.000000 0.000000
0.190000 0.182927 -0.000000 0.000000 0.899987 0.000000
0.316667 0.182927 -0.000012 0.000002 0.899472 0.000013
0.443333 0.182927 -0.000161 -0.000001 0.894511 0.000161
0.570000 0.182927 -0.000145 -0.000006 0.895586 0.000145
0.696667 0.182927 -0.000140 -0.000005 0.896137 0.000140
0.823333 0.182927 -0.000093 -0.000004 0.897456 0.000093
0.950000 0.182927 -0.000050 -0.000003 0.898574 0.000050
1.076667 0.182927 -0.000042 -0.000003 0.898670 0.000042
1.203333 0.182927 -0.000017 -0.000001 0.899376 0.000017
1.330000 0.182927 -0.000001 -0.000000 0.899968 0.000001
1.456667 0.182927 -0.000000 0.000000 0.900000 0.000000
1.583333 0.182927 -0.000000 0.000000 0.900000 0.000000
1.710000 0.182927 -0.000000 -0.000000 0.899986 0.000000
1.836667 0.182927 -0.000000 -0.000000 0.899996 0.000000
1.963333 0.182927 -0.000000 -0.000000 0.899989 0.000000
2.090000 0.182927 -0.000000 0.000000 0.899992 0.000000
2.216667 0.182927 -0.000000 0.000000 0.900000 0.000000
2.343333 0.182927 -0.000000 0.000000 0.900000 0.000000
2.470000 0.182927 -0.000000 0.000000 0.900000 0.000000
2.596667 0.182927 -0.000000 0.000000 0.900000 0.000000
2.723333 0.182927 -0.000000 0.000000 0.900000 0.000000
2.850000 0.182927 -0.000000 0.000000 0.899998 0.000000
2.976667 0.182927 -0.000000 0.000000 0.899986 0.000000
3.103333 0.182927 -0.000000 -0.000000 0.899977 0.000000
3.230000 0.182927 -0.000001 -0.000000 0.899875 0.000001
3.356667 0.182927 -0.000003 -0.000003 0.899549 0.000004
3.483333 0.182927 -0.000005 -0.000008 0.899138 0.000009
3.610000 0.182927 -0.000003 -0.000016 0.898530 0.000016
3.736667 0.182927 0.000000 0.000000 0.000000 0.000000
0.063333 0.197561 0.000000 0.000000 0.000000 0.000000
0.190000 0.197561 -0.000198 0.002189 0.723050 0.002198
0.316667 0.197561 -0.001082 0.000864 0.724717 0.001384
0.443333 0.197561 -0.001804 0.000020 0.744173 0.001804
0.570000 0.197561 -0.002172 -0.000058 0.765132 0.002172
0.696667 0.197561 -0.002351 -0.000045 0.783634 0.002352
0.823333 0.197561 -0.002104 -0.000074 0.802002 0.002105
0.950000 0.197561 -0.001728 -0.000097 0.818806 0.001730
1.076667 0.197561 -0.001330 -0.000125 0.834232 0.001336
1.203333 0.197561 -0.001007 -0.000075 0.846568 0.001010
1.330000 0.197561 -0.000764 0.000008 0.854708 0.000764
1.456667 0.197561 -0.000540 0.000048 0.861758 0.000542
1.583333 0.197561 -0.000337 0.000035 0.870383 0.000339
1.710000 0.197561 -0.000196 -0.000001 0.881246 0.000196
1.836667 0.197561 -0.000122 -0.000004 0.888639 0.000122
1.963333 0.197561 -0.000071 0.000001 0.893221 0.000071
2.090000 0.197561 -0.000033 0.000004 0.896719 0.000033
2.216667 0.197561 -0.000009 0.000002 0.899179 0.000009
2.343333 0.197561 -0.000005 0.000002 0.899493 0.000006
2.470000 0.197561 -0.000001 0.000000 0.899927 0.000001
2.596667 0.197561 -0.000000 0.000000 0.899991 0.000000
2.723333 0.197561 -0.000000 0.000000 0.899990 0.000000
2.850000 0.197561 -0.000004 0.000001 0.899067 0.000004
2.976667 0.197561 -0.000009 0.000001 0.897454 0.000010
3.103333 0.197561 -0.000012 -0.000002 0.896747 0.000012
3.230000 0.197561 -0.000033 -0.000021 0.893575 0.000039
3.356667 0.197561 -0.000075 -0.000074 0.888584 0.000106
3.483333 0.197561 -0.000092 -0.000145 0.884845 0.000171
3.610000 0.197561 -0.000051 -0.000229 0.880610 0.000235
3.736667 0.197561 0.000000 0.000000 0.000000 0.000000
0.063333 0.212195 0.000000 0.000000 0.000000 0.000000
0.190000 0.212195 0.001294 0.003315 0.618623 0.003558
0.316667 0.212195 0.002487 0.001621 0.604778 0.002969
0.443333 0.212195 0.001783 0.000209 0.600134 0.001795
0.570000 0.212195 0.000467 0.000251 0.600352 0.000530
0.696667 0.212195 -0.000612 0.000236 0.601387 0.000656
0.823333 0.212195 -0.000995 0.000109 0.602226 0.001001
0.950000 0.212195 -0.001111 -0.000059 0.603079 0.001113
1.076667 0.212195 -0.001358 -0.000248 0.602822 0.001380
1.203333 0.212195 -0.001795 -0.000114 0.605115 0.001799
1.330000 0.212195 -0.001757 0.000260 0.611744 0.001776
1.456667 0.212195 -0.001057 0.000559 0.616323 0.001195
1.583333 0.212195 -0.000094 0.000616 0.615428 0.000623
1.710000 0.212195 0.000528 0.000481 0.610371 0.000714
1.836667 0.212195 0.000811 0.000383 0.609999 0.000897
1.963333 0.212195 0.001296 0.000459 0.614273 0.001375
2.090000 0.212195 0.001781 0.000759 0.622839 0.001936
2.216667 0.212195 0.002034 0.001052 0.633528 0.002290
2.343333 0.212195 0.002316 0.000991 0.645134 0.002520
2.470000 0.212195 0.002544 0.000691 0.656050 0.002636
2.596667 0.212195 0.002633 0.000447 0.670077 0.002671
2.723333 0.212195 0.002643 0.000293 0.684504 0.002659
2.850000 0.212195 0.002443 0.000156 0.699636 0.002448
2.976667 0.212195 0.002180 0.000022 0.716286 0.002180
3.103333 0.212195 0.001818 -0.000202 0.732835 0.001829
3.230000 0.212195 0.001204 -0.000530 0.747083 0.001316
3.356667 0.212195 0.000620 -0.000998 0.756911 0.001175
3.483333 0.212195 0.000253 -0.001379 0.764035 0.001402
3.610000 0.212195 0.000054 -0.001682 0.766633 0.001683
3.736667 0.212195 0.000000 0.000000 0.000000 0.000000
0.063333 0.226829 0.000000 0.000000 0.000000 0.000000
0.190000 0.226829 0.000798 0.003207 0.601503 0.003305
0.316667 0.226829 0.001738 0.001612 0.600107 0.002371
0.443333 0.226829 0.001549 0.000278 0.600000 0.001573
0.570000 0.226829 0.000493 0.000458 0.600002 0.000673
0.696667 0.226829 -0.000500 0.000381 0.600016 0.000629
0.823333 0.226829 -0.000839 0.000250 0.600036 0.000875
0.950000 0.226829 -0.000980 0.000103 0.600052 0.000986
1.076667 0.226829 -0.001158 -0.000018 0.600044 0.001158
1.203333 0.226829 -0.001310 0.000123 0.600104 0.001316
1.330000 0.226829 -0.001238 0.000445 0.600354 0.001315
1.456667 0.226829 -0.000874 0.000736 0.600627 0.001143
1.583333 0.226829 -0.000274 0.000820 0.600588 0.000864
1.710000 0.226829 0.000539 0.000748 0.600335 0.000922
1.836667 0.226829 0.001429 0.000636 0.600289 0.001564
1.963333 0.226829 0.002434 0.000679 0.600360 0.002527
2.090000 0.226829 0.003425 0.001074 0.601000 0.003590
2.216667 0.226829 0.004436 0.001391 0.602034 0.004649
2.343333 0.226829 0.005603 0.001259 0.602760 0.005742
2.470000 0.226829 0.006533 0.000905 0.602399 0.006595
2.596667 0.226829 0.007170 0.000592 0.602002 0.007195
2.723333 0.226829 0.007624 0.000419 0.601420 0.007636
2.850000 0.226829 0.007817 0.000242 0.600961 0.007821
2.976667 0.226829 0.007792 0.000019 0.600487 0.007792
3.103333 0.226829 0.007421 -0.000366 0.600005 0.007430
3.230000 0.226829 0.006324 -0.000976 0.600000 0.006399
3.356667 0.226829 0.004830 -0.002054 0.600000 0.005249
3.483333 0.226829 0.003317 -0.003003 0.600000 0.004474
3.610000 0.226829 0.001261 -0.003709 0.600000 0.003918
3.736667 0.226829 0.000000 0.000000 0.000000 0.000000
0.063333 0.241463 0.000000 0.000000 0.000000 0.000000
0.190000 0.241463 0.000656 0.002994 0.600078 0.003066
0.316667 0.241463 0.001479 0.001527 0.600002 0.002126
0.443333 0.241463 0.001403 0.000315 0.600000 0.001438
0.570000 0.241463 0.000457 0.000645 0.600000 0.000791
0.696667 0.241463 -0.000500 0.000507 0.600000 0.000712
0.823333 0.241463 -0.000835 0.000374 0.600001 0.000915
0.950000 0.241463 -0.000981 0.000263 0.600001 0.001016
1.076667 0.241463 -0.001143 0.000190 0.600001 0.001159
1.203333 0.241463 -0.001259 0.000333 0.600002 0.001303
1.330000 0.241463 -0.001169 0.000620 0.600010 0.001323
1.456667 0.241463 -0.000833 0.000863 0.600020 0.001199
1.583333 0.241463 -0.000284 0.000898 0.600018 0.000942
1.710000 0.241463 0.000493 0.000754 0.600009 0.000901
1.836667 0.241463 0.001415 0.000610 0.600005 0.001541
1.963333 0.241463 0.002533 0.000618 0.600005 0.002607
2.090000 0.241463 0.003607 0.001115 0.600029 0.003775
2.216667 0.241463 0.004611 0.001422 0.600082 0.004826
2.343333 0.241463 0.005714 0.001332 0.600111 0.005867
2.470000 0.241463 0.006584 0.001036 0.600077 0.006665
2.596667 0.241463 0.007191 0.000727 0.600052 0.007228
2.723333 0.241463 0.007610 0.000550 0.600030 0.007630
2.850000 0.241463 0.007790 0.000357 0.600013 0.007798
2.976667 0.241463 0.007734 0.000117 0.600004 0.007735
3.103333 0.241463 0.007330 -0.000254 0.600000 0.007335
3.230000 0.241463 0.006224 -0.000795 0.600000 0.006274
3.356667 0.241463 0.004701 -0.001885 0.600000 0.005065
3.483333 0.241463 0.003146 -0.002827 0.600000 0.004229
3.610000 0.241463 0.001167 -0.003454 0.600000 0.003646
3.736667 0.241463 0.000000 0.000000 0.000000 0.000000
0.063333 0.256098 0.000000 0.000000 0.000000 0.000000
0.190000 0.256098 0.000563 0.002791 0.600003 0.002847
0.316667 0.256098 0.001280 0.001437 0.600000 0.001924
0.443333 0.256098 0.001268 0.000329 0.600000 0.001310
0.570000 0.256098 0.000421 0.000821 0.600000 0.000923
0.696667 0.256098 -0.000503 0.000624 0.600000 0.000802
0.823333 0.256098 -0.000828 0.000491 0.600000 0.000963
0.950000 0.256098 -0.000977 0.000414 0.600000 0.001061
1.076667 0.256098 -0.001126 0.000381 0.600000 0.001189
1.203333 0.256098 -0.001221 0.000525 0.600000 0.001329
1.330000 0.256098 -0.001122 0.000779 0.600000 0.001366
1.456667 0.256098 -0.000799 0.000978 0.600001 0.001262
1.583333 0.256098 -0.000287 0.000966 0.600000 0.001008
1.710000 0.256098 0.000441 0.000752 0.600000 0.000872
1.836667 0.256098 0.001377 0.000570 0.600000 0.001490
1.963333 0.256098 0.002597 0.000537 0.600000 0.002652
2.090000 0.256098 0.003704 0.001151 0.600001 0.003879
2.216667 0.256098 0.004646 0.001442 0.600003 0.004865
2.343333 0.256098 0.005694 0.001389 0.600004 0.005861
2.470000 0.256098 0.006544 0.001142 0.600002 0.006643
2.596667 0.256098 0.007152 0.000848 0.600001 0.007202
2.723333 0.256098 0.007567 0.000663 0.600001 0.007596
2.850000 0.256098 0.007746 0.000458 0.600000 0.007759
2.976667 0.256098 0.007680 0.000205 0.600000 0.007683
3.103333 0.256098 0.007271 -0.000154 0.600000 0.007273
3.230000 0.256098 0.006188 -0.000628 0.600000 0.006220
3.356667 0.256098 0.004682 -0.001724 0.600000 0.004989
3.483333 0.256098 0.003116 -0.002659 0.600000 0.004096
3.610000 0.256098 0.001149 -0.003221 0.600000 0.003420
3.736667 0.256098 0.000000 0.000000 0.000000 0.000000
0.063333 0.270732 0.000000 0.000000 0.000000 0.000000
0.190000 0.270732 0.000479 0.002604 0.600000 0.002648
0.316667 0.270732 0.001095 0.001347 0.600000 0.001736