TITLE="(Vx,Vy)"
VARIABLES=X,Y,Vx,Vy,Vm,V
ZONE T="T-Dummy" I=30, J=41, F=POINT
0.063333 0.007317 0.000000 0.000000 0.000000 0.000000
0.190000 0.007317 0.000000 0.000000 0.000000 0.000000
0.316667 0.007317 0.000000 0.000000 0.000000 0.000000
0.443333 0.007317 0.000000 0.000000 0.000000 0.000000
0.570000 0.007317 0.000000 0.000000 0.000000 0.000000
0.696667 0.007317 0.000000 0.000000 0.000000 0.000000
0.823333 0.007317 0.000000 0.000000 0.000000 0.000000
0.950000 0.007317 0.000000 0.000000 0.000000 0.000000
1.076667 0.007317 0.000000 0.000000 0.000000 0.000000
1.203333 0.007317 0.000000 0.000000 0.000000 0.000000
1.330000 0.007317 0.000000 0.000000 0.000000 0.000000
1.456667 0.007317 0.000000 0.000000 0.000000 0.000000
1.583333 0.007317 0.000000 0.000000 0.000000 0.000000
1.710000 0.007317 0.000000 0.000000 0.000000 0.000000
1.836667 0.007317 0.000000 0.000000 0.000000 0.000000
1.963333 0.007317 0.000000 0.000000 0.000000 0.000000
2.090000 0.007317 0.000000 0.000000 0.000000 0.000000
2.216667 0.007317 0.000000 0.000000 0.000000 0.000000
2.343333 0.007317 0.000000 0.000000 0.000000 0.000000
2.470000 0.007317 0.000000 0.000000 0.000000 0.000000
2.596667 0.007317 0.000000 0.000000 0.000000 0.000000
2.723333 0.007317 0.000000 0.000000 0.000000 0.000000
2.850000 0.007317 0.000000 0.000000 0.000000 0.000000
2.976667 0.007317 0.000000 0.000000 0.000000 0.000000
3.103333 0.007317 0.000000 0.000000 0.000000 0.000000
3.230000 0.007317 0.000000 0.000000 0.000000 0.000000
3.356667 0.007317 0.000000 0.000000 0.000000 0.000000
3.483333 0.007317 0.000000 0.000000 0.000000 0.000000
3.610000 0.007317 0.000000 0.000000 0.000000 0.000000
3.736667 0.007317 0.000000 0.000000 0.000000 0.000000
0.063333 0.021951 0.000000 0.000000 0.000000 0.000000
0.190000 0.021951 0.000000 -0.000000 0.900000 0.000000
0.316667 0.021951 0.000000 -0.000000 0.900000 0.000000
0.443333 0.021951 0.000000 -0.000000 0.900000 0.000000
0.570000 0.021951 0.000000 -0.000000 0.900000 0.000000
0.696667 0.021951 0.000000 -0.000000 0.900000 0.000000
0.823333 0.021951 0.000000 -0.000000 0.900000 0.000000
0.950000 0.021951 0.000000 -0.000000 0.900000 0.000000
1.076667 0.021951 0.000000 -0.000000 0.900000 0.000000
1.203333 0.021951 0.000000 -0.000000 0.900000 0.000000
1.330000 0.021951 0.000000 -0.000000 0.900000 0.000000
1.456667 0.021951 0.000000 -0.000000 0.900000 0.000000
1.583333 0.021951 0.000000 -0.000000 0.900000 0.000000
1.710000 0.021951 0.000000 -0.000000 0.900000 0.000000
1.836667 0.021951 0.000000 -0.000000 0.900000 0.000000
1.963333 0.021951 0.000000 -0.000000 0.900000 0.000000
2.090000 0.021951 0.000000 -0.000000 0.900000 0.000000
2.216667 0.021951 0.000000 -0.000000 0.900000 0.000000
2.343333 0.021951 0.000000 -0.000000 0.900000 0.000000
2.470000 0.021951 0.000000 -0.000000 0.900000 0.000000
2.596667 0.021951 0.000000 -0.000000 0.900000 0.000000
2.723333 0.021951 0.000000 0.000000 0.900000 0.000000
2.850000 0.021951 0.000000 -0.000000 0.900000 0.000000
2.976667 0.021951 0.000000 -0.000000 0.900000 0.000000
3.103333 0.021951 0.000000 -0.000000 0.900000 0.000000
3.230000 0.021951 0.000000 0.000000 0.900000 0.000000
3.356667 0.021951 0.000000 0.000000 0.900000 0.000000
3.483333 0.021951 0.000000 0.000000 0.900000 0.000000
3.610000 0.021951 0.000000 0.000000 0.900000 0.000000
3.736667 0.021951 0.000000 0.000000 0.000000 0.000000
0.063333 0.036585 0.000000 0.000000 0.000000 0.000000
0.190000 0.036585 0.000000 -0.000000 0.900000 0.000000
0.316667 0.036585 0.000000 -0.000000 0.900000 0.000000
0.443333 0.036585 0.000000 -0.000000 0.900000 0.000000
0.570000 0.036585 0.000000 -0.000000 0.900000 0.000000
0.696667 0.036585 0.000000 -0.000000 0.900000 0.000000
0.823333 0.036585 0.000000 -0.000000 0.900000 0.000000
0.950000 0.036585 0.000000 -0.000000 0.900000 0.000000
1.076667 0.036585 0.000000 -0.000000 0.900000 0.000000
1.203333 0.036585 0.000000 -0.000000 0.900000 0.000000
1.330000 0.036585 0.000000 -0.000000 0.900000 0.000000
1.456667 0.036585 0.000000 -0.000000 0.900000 0.000000
1.583333 0.036585 0.000000 -0.000000 0.900000 0.000000
1.710000 0.036585 0.000000 -0.000000 0.900000 0.000000
1.836667 0.036585 0.000000 -0.000000 0.900000 0.000000
1.963333 0.036585 0.000000 -0.000000 0.900000 0.000000
2.090000 0.036585 0.000000 -0.000000 0.900000 0.000000
2.216667 0.036585 0.000000 -0.000000 0.900000 0.000000
2.343333 0.036585 0.000000 -0.000000 0.900000 0.000000
2.470000 0.036585 0.000000 -0.000000 0.900000 0.000000
2.596667 0.036585 0.000000 -0.000000 0.900000 0.000000
2.723333 0.036585 0.000000 -0.000000 0.900000 0.000000
2.850000 0.036585 0.000000 -0.000000 0.900000 0.000000
2.976667 0.036585 0.000000 -0.000000 0.900000 0.000000
3.103333 0.036585 0.000000 -0.000000 0.900000 0.000000
3.230000 0.036585 0.000000 0.000000 0.900000 0.000000
3.356667 0.036585 0.000000 0.000000 0.900000 0.000000
3.483333 0.036585 0.000000 0.000000 0.900000 0.000000
3.610000 0.036585 0.000000 0.000000 0.900000 0.000000
3.736667 0.036585 0.000000 0.000000 0.000000 0.000000
0.063333 0.051220 0.000000 0.000000 0.000000 0.000000
0.190000 0.051220 0.000000 -0.000000 0.900000 0.000000
0.316667 0.051220 0.000000 -0.000000 0.900000 0.000000
0.443333 0.051220 0.000000 -0.000000 0.900000 0.000000
0.570000 0.051220 0.000000 -0.000000 0.900000 0.000000
0.696667 0.051220 0.000000 -0.000000 0.900000 0.000000
0.823333 0.051220 0.000000 -0.000000 0.900000 0.000000
0.950000 0.051220 0.000000 -0.000000 0.900000 0.000000
1.076667 0.051220 0.000000 -0.000000 0.900000 0.000000
1.203333 0.051220 0.000000 -0.000000 0.900000 0.000000
1.330000 0.051220 0.000000 -0.000000 0.900000 0.000000
1.456667 0.051220 0.000000 -0.000000 0.900000 0.000000
1.583333 0.051220 0.000000 -0.000000 0.900000 0.000000
1.710000 0.051220 0.000000 -0.000000 0.900000 0.000000
1.836667 0.051220 0.000000 -0.000000 0.900000 0.000000
1.963333 0.051220 0.000000 -0.000000 0.900000 0.000000
2.090000 0.051220 0.000000 -0.000000 0.900000 0.000000
2.216667 0.051220 0.000000 -0.000000 0.900000 0.000000
2.343333 0.051220 0.000000 -0.000000 0.900000 0.000000
2.470000 0.051220 0.000000 -0.000000 0.900000 0.000000
2.596667 0.051220 0.000000 -0.000000 0.900000 0.000000
2.723333 0.051220 0.000000 -0.000000 0.900000 0.000000
2.850000 0.051220 0.000000 -0.000000 0.900000 0.000000
2.976667 0.051220 0.000000 -0.000000 0.900000 0.000000
3.103333 0.051220 0.000000 -0.000000 0.900000 0.000000
3.230000 0.051220 0.000000 0.000000 0.900000 0.000000
3.356667 0.051220 0.000000 0.000000 0.900000 0.000000
3.483333 0.051220 0.000000 0.000000 0.900000 0.000000
3.610000 0.051220 0.000000 0.000000 0.900000 0.000000
3.736667 0.051220 0.000000 0.000000 0.000000 0.000000
0.063333 0.065854 0.000000 0.000000 0.000000 0.000000
0.190000 0.065854 0.000000 -0.000000 0.900000 0.000000
0.316667 0.065854 0.000000 -0.000000 0.900000 0.000000
0.443333 0.065854 0.000000 -0.000000 0.900000 0.000000
0.570000 0.065854 0.000000 -0.000000 0.900000 0.000000
0.696667 0.065854 0.000000 -0.000000 0.900000 0.000000
0.823333 0.065854 0.000000 -0.000000 0.900000 0.000000
0.950000 0.065854 0.000000 -0.000000 0.900000 0.000000
1.076667 0.065854 0.000000 -0.000000 0.900000 0.000000
1.203333 0.065854 0.000000 -0.000000 0.900000 0.000000
1.330000 0.065854 0.000000 -0.000000 0.900000 0.000000
1.456667 0.065854 0.000000 -0.000000 0.900000 0.000000
1.583333 0.065854 0.000000 -0.000000 0.900000 0.000000
1.710000 0.065854 0.000000 -0.000000 0.900000 0.000000
1.836667 0.065854 0.000000 -0.000000 0.900000 0.000000
1.963333 0.065854 0.000000 -0.000000 0.900000 0.000000
2.090000 0.065854 0.000000 -0.000000 0.900000 0.000000
2.216667 0.065854 0.000000 -0.000000 0.900000 0.000000
2.343333 0.065854 0.000000 -0.000000 0.900000 0.000000
2.470000 0.065854 0.000000 -0.000000 0.900000 0.000000
2.596667 0.065854 0.000000 -0.000000 0.900000 0.000000
2.723333 0.065854 0.000000 -0.000000 0.900000 0.000000
2.850000 0.065854 0.000000 -0.000000 0.900000 0.000000
2.976667 0.065854 0.000000 -0.000000 0.900000 0.000000
3.103333 0.065854 0.000000 -0.000000 0.900000 0.000000
3.230000 0.065854 0.000000 0.000000 0.900000 0.000000
3.356667 0.065854 0.000000 0.000000 0.900000 0.000000
3.483333 0.065854 0.000000 0.000000 0.900000 0.000000
3.610000 0.065854 0.000000 0.000000 0.900000 0.000000
3.736667 0.065854 0.000000 0.000000 0.000000 0.000000
0.063333 0.080488 0.000000 0.000000 0.000000 0.000000
0.190000 0.080488 0.000000 -0.000000 0.900000 0.000000
0.316667 0.080488 0.000000 -0.000000 0.900000 0.000000
0.443333 0.080488 0.000000 -0.000000 0.900000 0.000000
0.570000 0.080488 0.000000 -0.000000 0.900000 0.000000
0.696667 0.080488 0.000000 -0.000000 0.900000 0.000000
0.823333 0.080488 0.000000 -0.000000 0.900000 0.000000
0.950000 0.080488 0.000000 -0.000000 0.900000 0.000000
1.076667 0.080488 0.000000 -0.000000 0.900000 0.000000
1.203333 0.080488 0.000000 -0.000000 0.900000 0.000000
1.330000 0.080488 0.000000 -0.000000 0.900000 0.000000
1.456667 0.080488 0.000000 -0.000000 0.900000 0.000000
1.583333 0.080488 0.000000 -0.000000 0.900000 0.000000
1.710000 0.080488 0.000000 -0.000000 0.900000 0.000000
1.836667 0.080488 0.000000 -0.000000 0.900000 0.000000
1.963333 0.080488 0.000000 -0.000000 0.900000 0.000000
2.090000 0.080488 0.000000 -0.000000 0.900000 0.000000
2.216667 0.080488 0.000000 -0.000000 0.900000 0.000000
2.343333 0.080488 0.000000 -0.000000 0.900000 0.000000
2.470000 0.080488 0.000000 -0.000000 0.900000 0.000000
2.596667 0.080488 0.000000 -0.000000 0.900000 0.000000
2.723333 0.080488 0.000000 -0.000000 0.900000 0.000000
2.850000 0.080488 0.000000 -0.000000 0.900000 0.000000
2.976667 0.080488 0.000000 -0.000000 0.900000 0.000000
3.103333 0.080488 0.000000 -0.000000 0.900000 0.000000
3.230000 0.080488 0.000000 0.000000 0.900000 0.000000
3.356667 0.080488 0.000000 0.000000 0.900000 0.000000
3.483333 0.080488 0.000000 0.000000 0.900000 0.000000
3.610000 0.080488 0.000000 0.000000 0.900000 0.000000
3.736667 0.080488 0.000000 0.000000 0.000000 0.000000
0.063333 0.095122 0.000000 0.000000 0.000000 0.000000
0.190000 0.095122 0.000000 -0.000000 0.900000 0.000000
0.316667 0.095122 0.000000 -0.000000 0.900000 0.000000
0.443333 0.095122 0.000000 -0.000000 0.900000 0.000000
0.570000 0.095122 0.000000 -0.000000 0.900000 0.000000
0.696667 0.095122 0.000000 -0.000000 0.900000 0.000000
0.823333 0.095122 0.000000 -0.000000 0.900000 0.000000
0.950000 0.095122 0.000000 -0.000000 0.900000 0.000000
1.076667 0.095122 0.000000 -0.000000 0.900000 0.000000
1.203333 0.095122 0.000000 -0.000000 0.900000 0.000000
1.330000 0.095122 0.000000 -0.000000 0.900000 0.000000
1.456667 0.095122 0.000000 -0.000000 0.900000 0.000000
1.583333 0.095122 0.000000 -0.000000 0.900000 0.000000
1.710000 0.095122 0.000000 -0.000000 0.900000 0.000000
1.836667 0.095122 0.000000 -0.000000 0.900000 0.000000
1.963333 0.095122 0.000000 -0.000000 0.900000 0.000000
2.090000 0.095122 0.000000 -0.000000 0.900000 0.000000
2.216667 0.095122 0.000000 -0.000000 0.900000 0.000000
2.343333 0.095122 0.000000 -0.000000 0.900000 0.000000
2.470000 0.095122 0.000000 -0.000000 0.900000 0.000000
2.596667 0.095122 0.000000 -0.000000 0.900000 0.000000
2.723333 0.095122 0.000000 -0.000000 0.900000 0.000000
2.850000 0.095122 0.000000 -0.000000 0.900000 0.000000
2.976667 0.095122 0.000000 -0.000000 0.900000 0.000000
3.103333 0.095122 0.000000 -0.000000 0.900000 0.000000
3.230000 0.095122 0.000000 0.000000 0.900000 0.000000
3.356667 0.095122 0.000000 0.000000 0.900000 0.000000
3.483333 0.095122 0.000000 0.000000 0.900000 0.000000
3.610000 0.095122 0.000000 0.000000 0.900000 0.000000
3.736667 0.095122 0.000000 0.000000 0.000000 0.000000
0.063333 0.109756 0.000000 0.000000 0.000000 0.000000
0.190000 0.109756 0.000000 -0.000000 0.900000 0.000000
0.316667 0.109756 0.000000 -0.000000 0.900000 0.000000
0.443333 0.109756 0.000000 -0.000000 0.900000 0.000000
0.570000 0.109756 0.000000 -0.000000 0.900000 0.000000
0.696667 0.109756 0.000000 -0.000000 0.900000 0.000000
0.823333 0.109756 0.000000 -0.000000 0.900000 0.000000
0.950000 0.109756 0.000000 -0.000000 0.900000 0.000000
1.076667 0.109756 0.000000 -0.000000 0.900000 0.000000
1.203333 0.109756 0.000000 -0.000000 0.900000 0.000000
1.330000 0.109756 0.000000 -0.000000 0.900000 0.000000
1.456667 0.109756 0.000000 -0.000000 0.900000 0.000000
1.583333 0.109756 0.000000 -0.000000 0.900000 0.000000
1.710000 0.109756 0.000000 -0.000000 0.900000 0.000000
1.836667 0.109756 0.000000 -0.000000 0.900000 0.000000
1.963333 0.109756 0.000000 -0.000000 0.900000 0.000000
2.090000 0.109756 0.000000 -0.000000 0.900000 0.000000
2.216667 0.109756 0.000000 -0.000000 0.900000 0.000000
2.343333 0.109756 0.000000 -0.000000 0.900000 0.000000
2.470000 0.109756 0.000000 -0.000000 0.900000 0.000000
2.596667 0.109756 0.000000 -0.000000 0.900000 0.000000
2.723333 0.109756 0.000000 -0.000000 0.900000 0.000000
2.850000 0.109756 0.000000 -0.000000 0.900000 0.000000
2.976667 0.109756 0.000000 -0.000000 0.900000 0.000000
3.103333 0.109756 0.000000 -0.000000 0.900000 0.000000
3.230000 0.109756 0.000000 0.000000 0.900000 0.000000
3.356667 0.109756 0.000000 0.000000 0.900000 0.000000
3.483333 0.109756 0.000000 0.000000 0.900000 0.000000
3.610000 0.109756 0.000000 0.000000 0.900000 0.000000
3.736667 0.109756 0.000000 0.000000 0.000000 0.000000
0.063333 0.124390 0.000000 0.000000 0.000000 0.000000
0.190000 0.124390 0.000000 -0.000000 0.900000 0.000000
0.316667 0.124390 0.000000 -0.000000 0.900000 0.000000
0.443333 0.124390 0.000000 -0.000000 0.900000 0.000000
0.570000 0.124390 0.000000 -0.000000 0.900000 0.000000
0.696667 0.124390 0.000000 -0.000000 0.900000 0.000000
0.823333 0.124390 0.000000 -0.000000 0.900000 0.000000
0.950000 0.124390 0.000000 -0.000000 0.900000 0.000000
1.076667 0.124390 0.000000 -0.000000 0.900000 0.000000
1.203333 0.124390 0.000000 -0.000000 0.900000 0.000000
1.330000 0.124390 0.000000 -0.000000 0.900000 0.000000
1.456667 0.124390 0.000000 -0.000000 0.900000 0.000000
1.583333 0.124390 0.000000 -0.000000 0.900000 0.000000
1.710000 0.124390 0.000000 -0.000000 0.900000 0.000000
1.836667 0.124390 0.000000 -0.000000 0.900000 0.000000
1.963333 0.124390 0.000000 -0.000000 0.900000 0.000000
2.090000 0.124390 0.000000 -0.000000 0.900000 0.000000
2.216667 0.124390 0.000000 -0.000000 0.900000 0.000000
2.343333 0.124390 0.000000 -0.000000 0.900000 0.000000
2.470000 0.124390 0.000000 -0.000000 0.900000 0.000000
2.596667 0.124390 0.000000 -0.000000 0.900000 0.000000
2.723333 0.124390 0.000000 -0.000000 0.900000 0.000000
2.850000 0.124390 0.000000 -0.000000 0.900000 0.000000
2.976667 0.124390 0.000000 -0.000000 0.900000 0.000000
3.103333 0.124390 0.000000 -0.000000 0.900000 0.000000
3.230000 0.124390 0.000000 0.000000 0.900000 0.000000
3.356667 0.124390 0.000000 0.000000 0.900000 0.000000
3.483333 0.124390 0.000000 0.000000 0.900000 0.000000
3.610000 0.124390 0.000000 0.000000 0.900000 0.000000
3.736667 0.124390 0.000000 0.000000 0.000000 0.000000
0.063333 0.139024 0.000000 0.000000 0.000000 0.000000
0.190000 0.139024 -0.000000 0.000000 0.900000 0.000000
0.316667 0.139024 0.000000 -0.000000 0.900000 0.000000
0.443333 0.139024 0.000000 -0.000000 0.900000 0.000000
0.570000 0.139024 0.000000 -0.000000 0.900000 0.000000
0.696667 0.139024 0.000000 -0.000000 0.900000 0.000000
0.823333 0.139024 0.000000 -0.000000 0.900000 0.000000
0.950000 0.139024 0.000000 -0.000000 0.900000 0.000000
1.076667 0.139024 0.000000 -0.000000 0.900000 0.000000
1.203333 0.139024 0.000000 -0.000000 0.900000 0.000000
1.330000 0.139024 0.000000 -0.000000 0.900000 0.000000
1.456667 0.139024 0.000000 -0.000000 0.900000 0.000000
1.583333 0.139024 0.000000 -0.000000 0.900000 0.000000
1.710000 0.139024 0.000000 -0.000000 0.900000 0.000000
1.836667 0.139024 0.000000 -0.000000 0.900000 0.000000
1.963333 0.139024 0.000000 -0.000000 0.900000 0.000000
2.090000 0.139024 0.000000 -0.000000 0.900000 0.000000
2.216667 0.139024 0.000000 -0.000000 0.900000 0.000000
2.343333 0.139024 0.000000 -0.000000 0.900000 0.000000
2.470000 0.139024 0.000000 -0.000000 0.900000 0.000000
2.596667 0.139024 0.000000 -0.000000 0.900000 0.000000
2.723333 0.139024 0.000000 -0.000000 0.900000 0.000000
2.850000 0.139024 0.000000 -0.000000 0.900000 0.000000
2.976667 0.139024 0.000000 -0.000000 0.899999 0.000000
3.103333 0.139024 0.000000 -0.000000 0.900000 0.000000
3.230000 0.139024 0.000000 0.000000 0.900000 0.000000
3.356667 0.139024 0.000000 0.000000 0.899999 0.000000
3.483333 0.139024 0.000000 0.000000 0.900000 0.000000
3.610000 0.139024 0.000000 0.000000 0.900000 0.000000
3.736667 0.139024 0.000000 0.000000 0.000000 0.000000
0.063333 0.153659 0.000000 0.000000 0.000000 0.000000
0.190000 0.153659 -0.000000 0.000000 0.900000 0.000000
0.316667 0.153659 0.000000 -0.000000 0.900000 0.000000
0.443333 0.153659 0.000000 -0.000000 0.900000 0.000000
0.570000 0.153659 0.000000 -0.000000 0.900000 0.000000
0.696667 0.153659 0.000000 -0.000000 0.900000 0.000000
0.823333 0.153659 0.000000 -0.000000 0.900000 0.000000
0.950000 0.153659 0.000000 -0.000000 0.900000 0.000000
1.076667 0.153659 0.000000 -0.000000 0.900000 0.000000
1.203333 0.153659 0.000000 -0.000000 0.900000 0.000000
1.330000 0.153659 0.000000 -0.000000 0.900000 0.000000
1.456667 0.153659 0.000000 -0.000000 0.900000 0.000000
1.583333 0.153659 0.000000 -0.000000 0.900000 0.000000
1.710000 0.153659 0.000000 -0.000000 0.900000 0.000000
1.836667 0.153659 0.000000 -0.000000 0.900000 0.000000
1.963333 0.153659 0.000000 -0.000000 0.900000 0.000000
2.090000 0.153659 0.000000 -0.000000 0.900000 0.000000
2.216667 0.153659 0.000000 -0.000000 0.900000 0.000000
2.343333 0.153659 0.000000 -0.000000 0.900000 0.000000
2.470000 0.153659 0.000000 -0.000000 0.900000 0.000000
2.596667 0.153659 0.000000 -0.000000 0.900000 0.000000
2.723333 0.153659 0.000000 -0.000000 0.900000 0.000000
2.850000 0.153659 0.000000 -0.000000 0.900000 0.000000
2.976667 0.153659 0.000003 -0.000000 0.899961 0.000003
3.103333 0.153659 0.000003 -0.000000 0.899967 0.000003
3.230000 0.153659 0.000001 0.000000 0.899991 0.000001
3.356667 0.153659 0.000004 0.000000 0.899941 0.000004
3.483333 0.153659 0.000002 0.000001 0.899964 0.000002
3.610000 0.153659 0.000000 0.000000 0.899997 0.000000
3.736667 0.153659 0.000000 0.000000 0.000000 0.000000
0.063333 0.168293 0.000000 0.000000 0.000000 0.000000
0.190000 0.168293 -0.000000 0.000000 0.900000 0.000000
0.316667 0.168293 0.000000 -0.000000 0.900000 0.000000
0.443333 0.168293 0.000000 -0.000000 0.900000 0.000000
0.570000 0.168293 0.000000 -0.000000 0.900000 0.000000
0.696667 0.168293 0.000000 -0.000000 0.900000 0.000000
0.823333 0.168293 0.000000 -0.000000 0.900000 0.000000
0.950000 0.168293 0.000000 -0.000000 0.900000 0.000000
1.076667 0.168293 0.000000 -0.000000 0.900000 0.000000
1.203333 0.168293 0.000000 -0.000000 0.900000 0.000000
1.330000 0.168293 0.000000 -0.000000 0.900000 0.000000
1.456667 0.168293 0.000000 -0.000000 0.900000 0.000000
1.583333 0.168293 0.000000 -0.000000 0.900000 0.000000
1.710000 0.168293 0.000000 -0.000000 0.900000 0.000000
1.836667 0.168293 0.000000 -0.000000 0.900000 0.000000
1.963333 0.168293 0.000000 -0.000000 0.899999 0.000000
2.090000 0.168293 0.000000 -0.000000 0.900000 0.000000
2.216667 0.168293 0.000000 -0.000000 0.900000 0.000000
2.343333 0.168293 0.000000 -0.000000 0.899999 0.000000
2.470000 0.168293 0.000001 -0.000000 0.899986 0.000001
2.596667 0.168293 0.000000 -0.000000 0.899999 0.000000
2.723333 0.168293 0.000000 -0.000000 0.900000 0.000000
2.850000 0.168293 0.000001 -0.000000 0.899990 0.000001
2.976667 0.168293 0.000118 -0.000007 0.898550 0.000118
3.103333 0.168293 0.000210 -0.000002 0.897450 0.000210
3.230000 0.168293 0.000128 0.000006 0.898364 0.000129
3.356667 0.168293 0.000149 0.000019 0.897270 0.000150
3.483333 0.168293 0.001351 0.001294 0.842776 0.001871
3.610000 0.168293 0.000643 0.004839 0.803806 0.004882
3.736667 0.168293 0.000000 0.000000 0.000000 0.000000
0.063333 0.182927 0.000000 0.000000 0.000000 0.000000
0.190000 0.182927 -0.000000 0.000000 0.900000 0.000000
0.316667 0.182927 0.000000 -0.000000 0.899999 0.000000
0.443333 0.182927 0.000000 -0.000000 0.899996 0.000000
0.570000 0.182927 0.000000 -0.000000 0.899999 0.000000
0.696667 0.182927 0.000000 -0.000000 0.899999 0.000000
0.823333 0.182927 0.000000 -0.000000 0.900000 0.000000
0.950000 0.182927 0.000000 -0.000000 0.900000 0.000000
1.076667 0.182927 0.000000 -0.000000 0.900000 0.000000
1.203333 0.182927 0.000000 -0.000000 0.900000 0.000000
1.330000 0.182927 0.000000 -0.000000 0.900000 0.000000
1.456667 0.182927 0.000000 -0.000000 0.900000 0.000000
1.583333 0.182927 0.000000 -0.000000 0.900000 0.000000
1.710000 0.182927 0.000000 -0.000000 0.900000 0.000000
1.836667 0.182927 0.000000 -0.000000 0.899996 0.000000
1.963333 0.182927 0.000004 -0.000000 0.899956 0.000004
2.090000 0.182927 0.000001 -0.000000 0.899983 0.000001
2.216667 0.182927 0.000001 -0.000000 0.899981 0.000001
2.343333 0.182927 0.000006 -0.000000 0.899925 0.000006
2.470000 0.182927 0.000063 -0.000004 0.899191 0.000064
2.596667 0.182927 0.000026 -0.000000 0.899675 0.000026
2.723333 0.182927 0.000007 -0.000000 0.899915 0.000007
2.850000 0.182927 0.000036 -0.000000 0.899498 0.000036
2.976667 0.182927 0.001138 -0.000067 0.874627 0.001140
3.103333 0.182927 0.002168 -0.000026 0.800617 0.002168
3.230000 0.182927 0.002149 0.000805 0.716381 0.002295
3.356667 0.182927 -0.003176 0.003111 0.637712 0.004446
3.483333 0.182927 -0.009116 0.006261 0.644476 0.011059
3.610000 0.182927 -0.004381 0.010712 0.681062 0.011573
3.736667 0.182927 0.000000 0.000000 0.000000 0.000000
0.063333 0.197561 0.000000 0.000000 0.000000 0.000000
0.190000 0.197561 -0.000000 0.000000 0.900000 0.000000
0.316667 0.197561 -0.000000 -0.000000 0.899957 0.000000
0.443333 0.197561 0.000001 -0.000001 0.899898 0.000002
0.570000 0.197561 0.000001 -0.000000 0.899965 0.000001
0.696667 0.197561 0.000001 -0.000000 0.899970 0.000001
0.823333 0.197561 0.000001 -0.000000 0.899979 0.000001
0.950000 0.197561 0.000000 -0.000000 0.899995 0.000000
1.076667 0.197561 0.000000 -0.000000 0.899996 0.000000
1.203333 0.197561 0.000001 -0.000000 0.899989 0.000001
1.330000 0.197561 0.000001 -0.000000 0.899984 0.000001
1.456667 0.197561 0.000002 -0.000000 0.899973 0.000002
1.583333 0.197561 0.000003 -0.000000 0.899959 0.000003
1.710000 0.197561 0.000003 -0.000000 0.899967 0.000003
1.836667 0.197561 0.000019 -0.000001 0.899762 0.000019
1.963333 0.197561 0.000146 -0.000011 0.898162 0.000146
2.090000 0.197561 0.000143 -0.000004 0.898180 0.000144
2.216667 0.197561 0.000168 -0.000003 0.897808 0.000168
2.343333 0.197561 0.000212 -0.000006 0.896909 0.000212
2.470000 0.197561 0.001019 -0.000063 0.877219 0.001021
2.596667 0.197561 0.002211 -0.000065 0.806818 0.002212
2.723333 0.197561 0.002510 0.000001 0.732291 0.002510
2.850000 0.197561 -0.000177 0.000419 0.654022 0.000455
2.976667 0.197561 -0.008512 0.000705 0.600804 0.008541
3.103333 0.197561 -0.014162 0.000236 0.600358 0.014164
3.230000 0.197561 -0.014736 0.001515 0.603806 0.014814
3.356667 0.197561 -0.013730 0.004186 0.602779 0.014354
3.483333 0.197561 -0.011452 0.007356 0.604880 0.013611
3.610000 0.197561 -0.004920 0.012589 0.619791 0.013516
3.736667 0.197561 0.000000 0.000000 0.000000 0.000000
0.063333 0.212195 0.000000 0.000000 0.000000 0.000000
0.190000 0.212195 -0.000000 0.000000 0.899993 0.000000
0.316667 0.212195 -0.000002 -0.000010 0.898871 0.000010
0.443333 0.212195 0.000016 -0.000026 0.898107 0.000031
0.570000 0.212195 0.000018 -0.000011 0.899084 0.000021
0.696667 0.212195 0.000026 -0.000009 0.899104 0.000028
0.823333 0.212195 0.000029 -0.000007 0.899257 0.000030
0.950000 0.212195 0.000013 -0.000002 0.899719 0.000014
1.076667 0.212195 0.000013 -0.000002 0.899757 0.000014
1.203333 0.212195 0.000028 -0.000003 0.899562 0.000028
1.330000 0.212195 0.000069 -0.000006 0.899013 0.000069
1.456667 0.212195 0.000155 -0.000009 0.897902 0.000156
1.583333 0.212195 0.000258 -0.000013 0.896615 0.000258
1.710000 0.212195 0.000269 -0.000012 0.896467 0.000269
1.836667 0.212195 0.000537 -0.000040 0.891785 0.000539
1.963333 0.212195 0.001681 -0.000187 0.861138 0.001691
2.090000 0.212195 0.002741 -0.000223 0.796882 0.002750
2.216667 0.212195 0.003081 -0.000202 0.727118 0.003088
2.343333 0.212195 0.000807 -0.000019 0.654678 0.000807
2.470000 0.212195 -0.007051 0.000653 0.601538 0.007082
2.596667 0.212195 -0.012665 -0.000064 0.601797 0.012666
2.723333 0.212195 -0.013642 0.000111 0.602347 0.013642
2.850000 0.212195 -0.014015 0.000892 0.601767 0.014043
2.976667 0.212195 -0.013857 0.001377 0.600031 0.013925
3.103333 0.212195 -0.014246 0.000390 0.600002 0.014251
3.230000 0.212195 -0.015005 0.001578 0.600068 0.015087
3.356667 0.212195 -0.013857 0.003966 0.600117 0.014413
3.483333 0.212195 -0.010795 0.007216 0.600375 0.012985
3.610000 0.212195 -0.004493 0.012310 0.603251 0.013104
3.736667 0.212195 0.000000 0.000000 0.000000 0.000000
0.063333 0.226829 0.000000 0.000000 0.000000 0.000000
0.190000 0.226829 -0.000006 0.000004 0.899058 0.000007
0.316667 0.226829 -0.000101 -0.000178 0.881855 0.000205
0.443333 0.226829 0.000188 -0.000335 0.877890 0.000384
0.570000 0.226829 0.000294 -0.000200 0.884794 0.000356
0.696667 0.226829 0.000455 -0.000190 0.883911 0.000493
0.823333 0.226829 0.000626 -0.000164 0.884148 0.000647
0.950000 0.226829 0.000494 -0.000082 0.889699 0.000501
1.076667 0.226829 0.000558 -0.000072 0.889689 0.000562
1.203333 0.226829 0.000647 -0.000085 0.887868 0.000652
1.330000 0.226829 0.001431 -0.000179 0.866410 0.001442
1.456667 0.226829 0.002816 -0.000374 0.816903 0.002841
1.583333 0.226829 0.004082 -0.000549 0.761256 0.004119
1.710000 0.226829 0.004637 -0.000598 0.699913 0.004676
1.836667 0.226829 0.002098 -0.000519 0.635580 0.002161
1.963333 0.226829 -0.004775 -0.000440 0.601911 0.004795
2.090000 0.226829 -0.009339 -0.000464 0.601694 0.009351
2.216667 0.226829 -0.010879 -0.000201 0.601500 0.010881
2.343333 0.226829 -0.012000 0.000336 0.600980 0.012005
2.470000 0.226829 -0.012331 0.001359 0.600072 0.012406
2.596667 0.226829 -0.012854 0.000073 0.600013 0.012854
2.723333 0.226829 -0.013925 0.000169 0.600023 0.013926
2.850000 0.226829 -0.014333 0.000847 0.600030 0.014358
2.976667 0.226829 -0.014036 0.001247 0.600001 0.014092
3.103333 0.226829 -0.014237 0.000506 0.600000 0.014246
3.230000 0.226829 -0.014797 0.001614 0.600001 0.014885
3.356667 0.226829 -0.013512 0.003672 0.600003 0.014002
3.483333 0.226829 -0.010246 0.006876 0.600022 0.012339
3.610000 0.226829 -0.004177 0.011517 0.600384 0.012251
3.736667 0.226829 0.000000 0.000000 0.000000 0.000000
0.063333 0.241463 0.000000 0.000000 0.000000 0.000000
0.190000 0.241463 0.000087 0.000736 0.746580 0.000741
0.316667 0.241463 0.000552 -0.001501 0.757433 0.001600
0.443333 0.241463 0.001286 -0.002178 0.763746 0.002529
0.570000 0.241463 0.001621 -0.001763 0.767328 0.002395
0.696667 0.241463 0.001961 -0.001768 0.757260 0.002640
0.823333 0.241463 0.002787 -0.001769 0.737429 0.003301
0.950000 0.241463 0.003681 -0.001532 0.707557 0.003987
1.076667 0.241463 0.004387 -0.001589 0.670817 0.004666
1.203333 0.241463 0.003285 -0.001293 0.629173 0.003530
1.330000 0.241463 -0.000718 -0.000822 0.604551 0.001091
1.456667 0.241463 -0.003754 -0.001168 0.602820 0.003931
1.583333 0.241463 -0.005259 -0.001014 0.601974 0.005356
1.710000 0.241463 -0.006681 -0.000690 0.601395 0.006717
1.836667 0.241463 -0.007361 -0.000146 0.600457 0.007362
1.963333 0.241463 -0.007959 0.000086 0.600025 0.007959
2.090000 0.241463 -0.009442 -0.000294 0.600012 0.009446
2.216667 0.241463 -0.011048 -0.000050 0.600020 0.011049
2.343333 0.241463 -0.012186 0.000446 0.600015 0.012195
2.470000 0.241463 -0.012486 0.001255 0.600002 0.012549
2.596667 0.241463 -0.012918 0.000215 0.600000 0.012919
2.723333 0.241463 -0.013879 0.000244 0.600000 0.013881
2.850000 0.241463 -0.014276 0.000803 0.600000 0.014299
2.976667 0.241463 -0.014061 0.001116 0.600000 0.014105
3.103333 0.241463 -0.014218 0.000588 0.600000 0.014230
3.230000 0.241463 -0.014602 0.001628 0.600000 0.014693
3.356667 0.241463 -0.013177 0.003362 0.600000 0.013599
3.483333 0.241463 -0.009779 0.006498 0.600001 0.011741
3.610000 0.241463 -0.003917 0.010687 0.600034 0.011382
3.736667 0.241463 0.000000 0.000000 0.000000 0.000000
0.063333 0.256098 0.000000 0.000000 0.000000 0.000000
0.190000 0.256098 0.002141 0.001225 0.611213 0.002467
0.316667 0.256098 0.003779 -0.003032 0.600117 0.004845
0.443333 0.256098 0.002454 -0.004666 0.600001 0.005272
0.570000 0.256098 0.001134 -0.003785 0.600000 0.003951
0.696667 0.256098 -0.000133 -0.003556 0.600000 0.003558
0.823333 0.256098 -0.001231 -0.003109 0.600005 0.003344
0.950000 0.256098 -0.001881 -0.002240 0.600257 0.002925
1.076667 0.256098 -0.002378 -0.001895 0.600367 0.003041
1.203333 0.256098 -0.002885 -0.000978 0.600321 0.003046
1.330000 0.256098 -0.003161 -0.000332 0.600132 0.003178
1.456667 0.256098 -0.003959 -0.000896 0.600030 0.004060
1.583333 0.256098 -0.005387 -0.000774 0.600020 0.005442
1.710000 0.256098 -0.006843 -0.000482 0.600014 0.006860
1.836667 0.256098 -0.007496 -0.000218 0.600004 0.007499
1.963333 0.256098 -0.008000 0.000132 0.600000 0.008001
2.090000 0.256098 -0.009436 -0.000116 0.600000 0.009437
2.216667 0.256098 -0.011011 0.000106 0.600000 0.011011
2.343333 0.256098 -0.012127 0.000551 0.600000 0.012140
2.470000 0.256098 -0.012511 0.001170 0.600000 0.012565
2.596667 0.256098 -0.012973 0.000335 0.600000 0.012977
2.723333 0.256098 -0.013842 0.000311 0.600000 0.013845
2.850000 0.256098 -0.014228 0.000759 0.600000 0.014249
2.976667 0.256098 -0.014079 0.000999 0.600000 0.014115
3.103333 0.256098 -0.014193 0.000636 0.600000 0.014207
3.230000 0.256098 -0.014426 0.001618 0.600000 0.014517
3.356667 0.256098 -0.012860 0.003035 0.600000 0.013213
3.483333 0.256098 -0.009347 0.006107 0.600000 0.011165
3.610000 0.256098 -0.003683 0.009901 0.600002 0.010564
3.736667 0.256098 0.000000 0.000000 0.000000 0.000000
0.063333 0.270732 0.000000 0.000000 0.000000 0.000000
0.190000 0.270732 0.001625 0.000915 0.600360 0.001865
0.316667 0.270732 0.003033 -0.002807 0.600002 0.004133
0.443333 0.270732 0.002386 -0.004398 0.600000 0.005004
0.570000 0.270732 0.001298 -0.003510 0.600000 0.003742