TITLE="(Vx,Vy)"
VARIABLES=X,Y,jx,jy,Jm,T
ZONE T="T-Dummy" I=83, J=41, F=POINT
0.052410 0.007317 0.000000 0.000000 0.000000 412.093106
0.157229 0.007317 0.000000 0.000000 0.000000 627.921325
0.262048 0.007317 0.000000 0.000000 0.000000 633.329155
0.366867 0.007317 0.000000 0.000000 0.000000 633.413387
0.471687 0.007317 0.000000 0.000000 0.000000 633.428416
0.576506 0.007317 0.000000 0.000000 0.000000 634.475616
0.681325 0.007317 0.000000 0.000000 0.000000 690.420044
0.786145 0.007317 0.000000 0.000000 0.000000 691.459296
0.890964 0.007317 0.000000 0.000000 0.000000 691.472621
0.995783 0.007317 0.000000 0.000000 0.000000 691.472767
1.100602 0.007317 0.000000 0.000000 0.000000 691.472768
1.205422 0.007317 0.000000 0.000000 0.000000 691.472768
1.310241 0.007317 0.000000 0.000000 0.000000 691.472768
1.415060 0.007317 0.000000 0.000000 0.000000 691.472768
1.519880 0.007317 0.000000 0.000000 0.000000 691.472768
1.624699 0.007317 0.000000 0.000000 0.000000 691.472768
1.729518 0.007317 0.000000 0.000000 0.000000 691.472768
1.834337 0.007317 0.000000 0.000000 0.000000 691.472768
1.939157 0.007317 0.000000 0.000000 0.000000 691.472768
2.043976 0.007317 0.000000 0.000000 0.000000 691.472768
2.148795 0.007317 0.000000 0.000000 0.000000 691.472768
2.253614 0.007317 0.000000 0.000000 0.000000 691.472768
2.358434 0.007317 0.000000 0.000000 0.000000 691.472768
2.463253 0.007317 0.000000 0.000000 0.000000 691.472768
2.568072 0.007317 0.000000 0.000000 0.000000 691.472768
2.672892 0.007317 0.000000 0.000000 0.000000 691.472768
2.777711 0.007317 0.000000 0.000000 0.000000 691.472768
2.882530 0.007317 0.000000 0.000000 0.000000 691.472768
2.987349 0.007317 0.000000 0.000000 0.000000 691.472768
3.092169 0.007317 0.000000 0.000000 0.000000 691.472768
3.196988 0.007317 0.000000 0.000000 0.000000 691.472767
3.301807 0.007317 0.000000 0.000000 0.000000 691.472767
3.406627 0.007317 0.000000 0.000000 0.000000 691.472768
3.511446 0.007317 0.000000 0.000000 0.000000 691.472767
3.616265 0.007317 0.000000 0.000000 0.000000 691.472767
3.721084 0.007317 0.000000 0.000000 0.000000 691.472767
3.825904 0.007317 0.000000 0.000000 0.000000 691.472767
3.930723 0.007317 0.000000 0.000000 0.000000 691.472767
4.035542 0.007317 0.000000 0.000000 0.000000 691.472767
4.140361 0.007317 0.000000 0.000000 0.000000 691.472767
4.245181 0.007317 0.000000 0.000000 0.000000 691.472767
4.350000 0.007317 0.000000 0.000000 0.000000 691.472767
4.454819 0.007317 0.000000 0.000000 0.000000 691.472767
4.559639 0.007317 0.000000 0.000000 0.000000 691.472767
4.664458 0.007317 0.000000 0.000000 0.000000 691.472767
4.769277 0.007317 0.000000 0.000000 0.000000 691.472767
4.874096 0.007317 0.000000 0.000000 0.000000 691.472767
4.978916 0.007317 0.000000 0.000000 0.000000 691.472767
5.083735 0.007317 0.000000 0.000000 0.000000 691.472767
5.188554 0.007317 0.000000 0.000000 0.000000 691.472767
5.293373 0.007317 0.000000 0.000000 0.000000 691.472767
5.398193 0.007317 0.000000 0.000000 0.000000 691.472766
5.503012 0.007317 0.000000 0.000000 0.000000 691.472766
5.607831 0.007317 0.000000 0.000000 0.000000 691.472766
5.712651 0.007317 0.000000 0.000000 0.000000 691.472766
5.817470 0.007317 0.000000 0.000000 0.000000 691.472766
5.922289 0.007317 0.000000 0.000000 0.000000 691.472766
6.027108 0.007317 0.000000 0.000000 0.000000 691.472766
6.131928 0.007317 0.000000 0.000000 0.000000 691.472766
6.236747 0.007317 0.000000 0.000000 0.000000 691.472766
6.341566 0.007317 0.000000 0.000000 0.000000 691.472766
6.446386 0.007317 0.000000 0.000000 0.000000 691.472766
6.551205 0.007317 0.000000 0.000000 0.000000 691.472766
6.656024 0.007317 0.000000 0.000000 0.000000 691.472766
6.760843 0.007317 0.000000 0.000000 0.000000 691.472766
6.865663 0.007317 0.000000 0.000000 0.000000 691.472766
6.970482 0.007317 0.000000 0.000000 0.000000 691.472766
7.075301 0.007317 0.000000 0.000000 0.000000 691.472766
7.180120 0.007317 0.000000 0.000000 0.000000 691.472766
7.284940 0.007317 0.000000 0.000000 0.000000 691.472766
7.389759 0.007317 0.000000 0.000000 0.000000 691.472766
7.494578 0.007317 0.000000 0.000000 0.000000 691.472766
7.599398 0.007317 0.000000 0.000000 0.000000 691.472766
7.704217 0.007317 0.000000 0.000000 0.000000 691.472764
7.809036 0.007317 0.000000 0.000000 0.000000 691.472618
7.913855 0.007317 0.000000 0.000000 0.000000 691.459292
8.018675 0.007317 0.000000 0.000000 0.000000 690.420040
8.123494 0.007317 0.000000 0.000000 0.000000 634.475612
8.228313 0.007317 0.000000 0.000000 0.000000 633.428411
8.333133 0.007317 0.000000 0.000000 0.000000 633.413322
8.437952 0.007317 0.000000 0.000000 0.000000 633.324028
8.542771 0.007317 0.000000 0.000000 0.000000 627.564677
8.647590 0.007317 0.000000 0.000000 0.000000 394.915046
0.052410 0.021951 0.000000 0.000000 0.000000 525.217059
0.157229 0.021951 169.109955 -30.417847 171.826218 961.422663
0.262048 0.021951 499.548676 -31.313017 500.529114 968.442840
0.366867 0.021951 817.759460 -35.333138 818.522583 968.515016
0.471687 0.021951 1107.156494 -40.206787 1107.886475 968.524998
0.576506 0.021951 1322.251465 -45.827477 1323.045532 969.637022
0.681325 0.021951 1399.758057 -48.195595 1400.587524 1085.549731
0.786145 0.021951 1330.064209 -48.598160 1330.952393 1086.646814
0.890964 0.021951 1165.826416 -47.507854 1166.795654 1086.654973
0.995783 0.021951 954.400635 -46.421375 955.534180 1086.655028
1.100602 0.021951 753.932251 -48.162216 755.496582 1086.655029
1.205422 0.021951 597.533813 -48.602245 599.556152 1086.655029
1.310241 0.021951 483.218292 -49.035698 485.767334 1086.655028
1.415060 0.021951 403.613861 -48.884560 406.638702 1086.655028
1.519880 0.021951 341.018005 -47.966309 344.446533 1086.655028
1.624699 0.021951 276.470825 -46.393318 280.402710 1086.655028
1.729518 0.021951 200.996185 -44.972855 206.033569 1086.655028
1.834337 0.021951 134.353424 -45.925171 142.098007 1086.655028
1.939157 0.021951 93.742287 -46.119530 104.898170 1086.655028
2.043976 0.021951 74.551384 -46.053616 88.396584 1086.655028
2.148795 0.021951 73.146393 -46.053936 87.131790 1086.655028
2.253614 0.021951 84.482712 -46.620064 96.826813 1086.655028
2.358434 0.021951 87.851952 -45.103882 98.876053 1086.655028
2.463253 0.021951 65.404945 -43.470665 78.672516 1086.655028
2.568072 0.021951 27.867878 -42.874523 51.546860 1086.655027
2.672892 0.021951 -1.740977 -43.431217 43.692829 1086.655028
2.777711 0.021951 -4.015919 -45.085846 45.390419 1086.655027
2.882530 0.021951 13.744350 -44.846970 47.201866 1086.655027
2.987349 0.021951 29.127678 -43.758984 52.833466 1086.655027
3.092169 0.021951 31.074291 -42.537647 52.940002 1086.655027
3.196988 0.021951 19.399315 -42.268768 46.880653 1086.655027
3.301807 0.021951 0.950549 -41.938599 42.501617 1086.655027
3.406627 0.021951 -9.923270 -42.531757 44.228645 1086.655027
3.511446 0.021951 -1.545548 -43.213783 43.658844 1086.655027
3.616265 0.021951 20.508892 -43.371758 48.137020 1086.655026
3.721084 0.021951 41.589371 -42.848721 59.743252 1086.655026
3.825904 0.021951 46.875652 -41.774864 62.795815 1086.655027
3.930723 0.021951 30.047537 -40.719406 50.630028 1086.655026
4.035542 0.021951 2.191360 -40.632866 40.892216 1086.655026
4.140361 0.021951 -15.077057 -41.501614 44.387901 1086.655026
4.245181 0.021951 -10.842052 -42.373314 43.880287 1086.655026
4.350000 0.021951 8.471168 -42.682938 43.552910 1086.655026
4.454819 0.021951 27.927443 -42.292099 50.681011 1086.655026
4.559639 0.021951 32.557030 -41.337181 52.627319 1086.655026
4.664458 0.021951 15.826053 -40.379898 43.374222 1086.655025
4.769277 0.021951 -11.600546 -40.360580 42.016861 1086.655025
4.874096 0.021951 -28.527845 -41.283520 50.210823 1086.655026
4.978916 0.021951 -24.128145 -42.216553 48.631672 1086.655025
5.083735 0.021951 -4.715342 -42.589943 42.857788 1086.655025
5.188554 0.021951 14.846077 -42.262131 44.858955 1086.655025
5.293373 0.021951 19.546455 -41.363178 45.875137 1086.655025
5.398193 0.021951 2.701406 -40.452518 40.658737 1086.655025
5.503012 0.021951 -25.120785 -40.477436 47.647758 1086.655024
5.607831 0.021951 -42.725060 -41.439987 59.522076 1086.655025
5.712651 0.021951 -39.371574 -42.401283 57.881382 1086.655025
5.817470 0.021951 -21.550863 -42.797768 48.059509 1086.655024
5.922289 0.021951 -4.293178 -42.491158 43.167564 1086.655024
6.027108 0.021951 -2.810365 -41.608559 42.462738 1086.655024
6.131928 0.021951 -24.051260 -40.708298 47.773483 1086.655024
6.236747 0.021951 -57.651165 -40.748718 70.713058 1086.655024
6.341566 0.021951 -82.519241 -41.741386 92.548370 1086.655024
6.446386 0.021951 -88.197266 -42.737976 98.137451 1086.655024
6.551205 0.021951 -81.798004 -43.168915 92.796814 1086.655024
6.656024 0.021951 -79.223770 -42.896690 90.657928 1086.655024
6.760843 0.021951 -96.750229 -42.053474 106.014366 1086.655024
6.865663 0.021951 -142.553223 -41.197632 148.621552 1086.655024
6.970482 0.021951 -207.441559 -41.302814 211.620941 1086.655024
7.075301 0.021951 -271.455261 -42.387817 274.827698 1086.655024
7.180120 0.021951 -325.786194 -43.496002 328.764465 1086.655024
7.284940 0.021951 -379.675323 -44.090553 382.320190 1086.655024
7.389759 0.021951 -451.024750 -44.072231 453.258057 1086.655024
7.494578 0.021951 -557.451721 -43.599728 559.215454 1086.655023
7.599398 0.021951 -706.899109 -43.163296 708.251221 1086.655023
7.704217 0.021951 -887.242065 -43.273239 888.314941 1086.655023
7.809036 0.021951 -1071.313232 -42.913307 1072.179443 1086.654968
7.913855 0.021951 -1224.304199 -42.197414 1225.037842 1086.646805
8.018675 0.021951 -1294.317505 -41.420532 1294.984619 1085.549722
8.123494 0.021951 -1225.125488 -38.931099 1225.746582 969.637014
8.228313 0.021951 -1018.806458 -35.143501 1019.414185 968.524990
8.333133 0.021951 -738.028137 -30.493105 738.659058 968.514974
8.437952 0.021951 -438.914734 -26.497503 439.714752 968.438851
8.542771 0.021951 -144.859070 -24.267830 146.879120 961.007832
8.647590 0.021951 0.000000 0.000000 0.000000 495.106017
0.052410 0.036585 0.000000 0.000000 0.000000 626.561211
0.157229 0.036585 168.984985 -91.190277 192.035187 1137.832616
0.262048 0.036585 498.862427 -93.819672 507.608124 1144.878210
0.366867 0.036585 816.517761 -105.898476 823.358032 1144.936693
0.471687 0.036585 1105.691284 -120.483856 1112.238159 1144.941043
0.576506 0.036585 1321.135986 -137.384644 1328.261719 1145.430894
0.681325 0.036585 1399.371216 -144.402100 1406.802002 1184.881874
0.786145 0.036585 1330.160156 -145.604736 1338.110596 1185.364835
0.890964 0.036585 1166.130127 -142.326447 1174.797363 1185.368477
0.995783 0.036585 954.309204 -139.030991 964.428406 1185.368499
1.100602 0.036585 753.627747 -144.329605 767.561523 1185.368499
1.205422 0.036585 597.411865 -145.611755 615.308838 1185.368498
1.310241 0.036585 483.178864 -146.913895 505.557068 1185.368498
1.415060 0.036585 403.763123 -146.461624 430.077026 1185.368498
1.519880 0.036585 341.365784 -143.710007 370.897278 1185.368498
1.624699 0.036585 276.888733 -138.988342 310.252869 1185.368498
1.729518 0.036585 201.061523 -134.697693 242.374985 1185.368498
1.834337 0.036585 134.193329 -137.614670 192.604370 1185.368498
1.939157 0.036585 93.724350 -138.172913 167.885651 1185.368498
2.043976 0.036585 74.560539 -137.950104 158.003036 1185.368498
2.148795 0.036585 73.067307 -137.910995 157.142990 1185.368498
2.253614 0.036585 84.615356 -139.680725 163.946106 1185.368498
2.358434 0.036585 88.291641 -135.108856 161.650391 1185.368498
2.463253 0.036585 65.716187 -130.201279 146.040283 1185.368498
2.568072 0.036585 27.873383 -128.410156 131.622009 1185.368498
2.672892 0.036585 -2.049707 -130.066681 130.154846 1185.368498
2.777711 0.036585 -4.213577 -135.078568 135.183533 1185.368498
2.882530 0.036585 13.929598 -134.336761 135.169266 1185.368498
2.987349 0.036585 29.450089 -131.053207 134.467651 1185.368498
3.092169 0.036585 31.282345 -127.359253 131.303589 1185.368498
3.196988 0.036585 19.482950 -126.598633 128.257660 1185.368498
3.301807 0.036585 0.913832 -125.590958 125.784416 1185.368498
3.406627 0.036585 -10.101303 -127.371002 127.973480 1185.368498
3.511446 0.036585 -1.662823 -129.415878 129.569031 1185.368498
3.616265 0.036585 20.559860 -129.888412 131.576324 1185.368497
3.721084 0.036585 41.812317 -128.321060 134.983902 1185.368498
3.825904 0.036585 47.172935 -125.101059 133.705139 1185.368498
3.930723 0.036585 30.206974 -121.931183 125.630951 1185.368498
4.035542 0.036585 2.082153 -121.671974 121.758484 1185.368498
4.140361 0.036585 -15.320047 -124.281952 125.316101 1185.368498
4.245181 0.036585 -11.006981 -126.895432 127.424530 1185.368497
4.350000 0.036585 8.482506 -127.822548 128.116913 1185.368497
4.454819 0.036585 28.115330 -126.651520 129.734650 1185.368497
4.559639 0.036585 32.823997 -123.788246 128.072235 1185.368498
4.664458 0.036585 15.962399 -120.912781 121.963593 1185.368498
4.769277 0.036585 -11.726704 -120.854736 121.431030 1185.368498
4.874096 0.036585 -28.786964 -123.627136 126.951859 1185.368497
4.978916 0.036585 -24.310539 -126.424820 128.744446 1185.368497
5.083735 0.036585 -4.721705 -127.543289 127.633240 1185.368497
5.188554 0.036585 15.017349 -126.561378 127.475281 1185.368497
5.293373 0.036585 19.799103 -123.866005 125.494865 1185.368497
5.398193 0.036585 2.825067 -121.130440 121.203362 1185.368498
5.503012 0.036585 -25.258650 -121.205246 123.813293 1185.368498
5.607831 0.036585 -42.993656 -124.096375 131.333954 1185.368497
5.712651 0.036585 -39.561134 -126.978577 133.012482 1185.368497
5.817470 0.036585 -21.563412 -128.166138 130.031738 1185.368497
5.922289 0.036585 -4.127150 -127.247787 127.473763 1185.368497
6.027108 0.036585 -2.561455 -124.601364 124.890144 1185.368497
6.131928 0.036585 -23.931215 -121.896667 124.472527 1185.368497
6.236747 0.036585 -57.795399 -122.017471 135.159698 1185.368497
6.341566 0.036585 -82.796982 -124.998672 150.084167 1185.368497
6.446386 0.036585 -88.396576 -127.986450 155.839081 1185.368497
6.551205 0.036585 -81.820168 -129.277039 153.605011 1185.368497
6.656024 0.036585 -79.068039 -128.461380 151.931183 1185.368497
6.760843 0.036585 -96.513023 -125.932983 160.028900 1185.368497
6.865663 0.036585 -142.448425 -123.361374 189.462524 1185.368497
6.970482 0.036585 -207.607727 -123.675926 242.296204 1185.368497
7.075301 0.036585 -271.761475 -126.932999 300.511230 1185.368497
7.180120 0.036585 -326.023926 -130.253510 351.721008 1185.368497
7.284940 0.036585 -379.755798 -132.032471 402.770172 1185.368497
7.389759 0.036585 -450.956238 -131.975784 470.554382 1185.368497
7.494578 0.036585 -557.324829 -130.559082 572.924438 1185.368497
7.599398 0.036585 -706.853577 -129.258759 718.879883 1185.368497
7.704217 0.036585 -887.207214 -129.622421 896.784973 1185.368497
7.809036 0.036585 -1071.163086 -128.507751 1078.906128 1185.368475
7.913855 0.036585 -1224.095825 -126.327629 1230.655518 1185.364831
8.018675 0.036585 -1293.861572 -124.027649 1299.832886 1184.881870
8.123494 0.036585 -1224.249023 -116.630829 1229.815674 1145.430892
8.228313 0.036585 -1017.628479 -105.309982 1023.079102 1144.941041
8.333133 0.036585 -736.821045 -91.372086 742.476196 1144.936668
8.437952 0.036585 -438.045593 -79.394714 445.190674 1144.874442
8.542771 0.036585 -144.547775 -72.712135 161.815277 1137.348174
8.647590 0.036585 0.000000 0.000000 0.000000 586.858940
0.052410 0.051220 0.000000 0.000000 0.000000 713.600020
0.157229 0.051220 168.742859 -151.773743 226.982559 1203.926868
0.262048 0.051220 497.495178 -155.966553 521.370728 1210.036792
0.366867 0.051220 814.036743 -176.161591 832.884338 1210.082117
0.471687 0.051220 1102.760498 -200.349365 1120.817871 1210.083556
0.576506 0.051220 1318.912109 -228.652267 1338.590698 1210.229446
0.681325 0.051220 1398.610352 -240.065018 1419.063965 1220.642497
0.786145 0.051220 1330.354004 -242.053406 1352.206787 1220.786597
0.890964 0.051220 1166.744141 -236.564209 1190.518555 1220.787717
0.995783 0.051220 954.120972 -230.948242 981.786865 1220.787723
1.100602 0.051220 753.013428 -240.036194 790.955078 1220.787722
1.205422 0.051220 597.172974 -242.043228 645.339172 1220.787722
1.310241 0.051220 483.099609 -244.220016 542.521301 1220.787722
1.415060 0.051220 404.061157 -243.469971 472.928894 1220.787722
1.519880 0.051220 342.061340 -238.894562 418.213318 1220.787722
1.624699 0.051220 277.729065 -231.016602 362.005432 1220.787722
1.729518 0.051220 201.187958 -223.765945 301.410004 1220.787722
1.834337 0.051220 133.868225 -228.831390 265.498138 1220.787722
1.939157 0.051220 93.695450 -229.677338 248.836716 1220.787722
2.043976 0.051220 74.587952 -229.222778 241.977997 1220.787722
2.148795 0.051220 72.904778 -229.019363 241.192352 1220.787722
2.253614 0.051220 84.873932 -232.212418 247.768219 1220.787722
2.358434 0.051220 89.175400 -224.512695 241.778488 1220.787722
2.463253 0.051220 66.340164 -216.307465 226.393509 1220.787722
2.568072 0.051220 27.886669 -213.313599 215.269775 1220.787722
2.672892 0.051220 -2.671976 -216.027710 216.082855 1220.787722
2.777711 0.051220 -4.612078 -224.543457 224.610657 1220.787722
2.882530 0.051220 14.306345 -223.221893 223.748276 1220.787722
2.987349 0.051220 30.101830 -217.684570 219.850006 1220.787722
3.092169 0.051220 31.696209 -211.424988 213.896240 1220.787722
3.196988 0.051220 19.646193 -210.314850 211.342865 1220.787722
3.301807 0.051220 0.842716 -208.576599 208.698090 1220.787722
3.406627 0.051220 -10.457279 -211.545288 211.932159 1220.787722
3.511446 0.051220 -1.897011 -214.949341 215.046448 1220.787722
3.616265 0.051220 20.661743 -215.732193 216.763123 1220.787722
3.721084 0.051220 42.257748 -213.125900 217.288757 1220.787722
3.825904 0.051220 47.767761 -207.764587 213.188080 1220.787722
3.930723 0.051220 30.526281 -202.469894 204.766174 1220.787722
4.035542 0.051220 1.863162 -202.039246 202.090851 1220.787722
4.140361 0.051220 -15.806320 -206.401611 207.066513 1220.787722
4.245181 0.051220 -11.336367 -210.751801 211.089981 1220.787722
4.350000 0.051220 8.505219 -212.291122 212.469421 1220.787722
4.454819 0.051220 28.490685 -210.344421 212.265167 1220.787722
4.559639 0.051220 33.358231 -205.577362 208.271057 1220.787722
4.664458 0.051220 16.235609 -200.772980 201.429688 1220.787722
4.769277 0.051220 -11.979504 -200.675903 201.039032 1220.787722
4.874096 0.051220 -29.305504 -205.308426 207.401947 1220.787722
4.978916 0.051220 -24.674892 -209.966431 211.413940 1220.787722
5.083735 0.051220 -4.734407 -211.824860 211.879272 1220.787722
5.188554 0.051220 15.359476 -210.193390 210.770782 1220.787722
5.293373 0.051220 20.304686 -205.706177 206.743317 1220.787722
5.398193 0.051220 3.072883 -201.135040 201.183807 1220.787722
5.503012 0.051220 -25.534870 -201.259918 202.875473 1220.787722
5.607831 0.051220 -43.531094 -206.089981 210.637512 1220.787722
5.712651 0.051220 -39.939766 -210.887848 214.644806 1220.787722
5.817470 0.051220 -21.588449 -212.860825 213.992340 1220.787722
5.922289 0.051220 -3.795489 -211.335205 211.467590 1220.787722
6.027108 0.051220 -2.063278 -206.929199 207.102997 1220.787722
6.131928 0.051220 -23.690516 -202.408417 203.948364 1220.787722
6.236747 0.051220 -58.084248 -202.608261 210.873016 1220.787722
6.341566 0.051220 -83.352600 -207.587479 223.817123 1220.787722
6.446386 0.051220 -88.794586 -212.560364 230.606873 1220.787722
6.551205 0.051220 -81.864319 -214.703842 230.280914 1220.787722
6.656024 0.051220 -78.756905 -213.347900 228.307404 1220.787721
6.760843 0.051220 -96.038208 -209.138275 231.389832 1220.787721
6.865663 0.051220 -142.238113 -204.838715 250.602783 1220.787721
6.970482 0.051220 -207.940201 -205.359741 293.245178 1220.787721
7.075301 0.051220 -272.373596 -210.794998 345.437836 1220.787721
7.180120 0.051220 -326.498169 -216.315689 392.917389 1220.787721
7.284940 0.051220 -379.915771 -219.265060 440.162476 1220.787721
7.389759 0.051220 -450.819061 -219.164856 502.813782 1220.787721
7.494578 0.051220 -557.072388 -216.806259 599.009033 1220.787721
7.599398 0.051220 -706.768372 -214.668945 739.423462 1220.787721
7.704217 0.051220 -887.137268 -215.391586 913.326172 1220.787721
7.809036 0.051220 -1070.853271 -213.415848 1092.071289 1220.787715
7.913855 0.051220 -1223.678711 -209.674500 1241.666260 1220.786595
8.018675 0.051220 -1292.963745 -205.945068 1309.370117 1220.642495
8.123494 0.051220 -1222.512207 -193.846252 1237.849487 1210.229446
8.228313 0.051220 -1015.280029 -175.115646 1030.315552 1210.083556
8.333133 0.051220 -734.410034 -151.929459 749.991577 1210.082095
8.437952 0.051220 -436.309540 -131.998703 455.861389 1210.032851
8.542771 0.051220 -143.926086 -120.882629 187.973267 1203.381565
8.647590 0.051220 0.000000 0.000000 0.000000 666.900481
0.052410 0.065854 0.000000 0.000000 0.000000 786.170327
0.157229 0.065854 168.399597 -212.046432 270.809601 1223.124657
0.262048 0.065854 495.457550 -217.509689 541.099915 1228.137827
0.366867 0.065854 810.321289 -245.924286 846.826538 1228.172568
0.471687 0.065854 1098.362793 -279.523376 1133.383789 1228.173018
0.576506 0.065854 1315.591309 -319.450562 1353.832764 1228.206198
0.681325 0.065854 1397.500244 -334.851562 1437.056885 1230.420883
0.786145 0.065854 1330.648926 -337.606323 1372.827148 1230.453713
0.890964 0.065854 1167.680664 -329.865723 1213.433594 1230.453973
0.995783 0.065854 953.824524 -321.731964 1006.816162 1230.453974
1.100602 0.065854 752.078735 -335.006531 824.389404 1230.453974
1.205422 0.065854 596.827698 -337.531311 687.242859 1230.453974
1.310241 0.065854 482.979675 -340.594910 592.782104 1230.453974
1.415060 0.065854 404.506653 -339.552307 529.763245 1230.453974
1.519880 0.065854 343.104431 -333.169678 479.515869 1230.453974
1.624699 0.065854 279.000916 -322.124481 427.031860 1230.453974
1.729518 0.065854 201.366608 -311.757202 371.612610 1230.453974
1.834337 0.065854 133.368011 -319.289917 346.327271 1230.453974
1.939157 0.065854 93.669708 -320.290710 334.336304 1230.453974
2.043976 0.065854 74.652405 -319.480774 328.817810 1230.453974
2.148795 0.065854 72.649918 -318.888977 327.758270 1230.453974
2.253614 0.065854 85.244537 -323.891052 335.366089 1230.453974
2.358434 0.065854 90.512192 -312.935760 325.920349 1230.453974
2.463253 0.065854 67.279739 -301.395630 308.918823 1230.453974
2.568072 0.065854 27.912441 -297.187256 298.599548 1230.453974
2.672892 0.065854 -3.617544 -300.883026 300.927551 1230.453974
2.777711 0.065854 -5.217979 -313.155701 313.209595 1230.453974
2.882530 0.065854 14.887189 -311.121948 311.527283 1230.453974
2.987349 0.065854 31.097092 -303.235931 304.896454 1230.453974
3.092169 0.065854 32.311253 -294.244659 296.101440 1230.453974
3.196988 0.065854 19.880623 -293.036530 293.801453 1230.453974
3.301807 0.065854 0.742047 -290.473755 290.566467 1230.453974
3.406627 0.065854 -10.991020 -294.634308 294.938293 1230.453974
3.511446 0.065854 -2.247371 -299.391083 299.466431 1230.453974
3.616265 0.065854 20.814434 -300.477142 301.228943 1230.453974
3.721084 0.065854 42.924698 -296.840973 299.937653 1230.453973
3.825904 0.065854 48.660652 -289.346954 293.411591 1230.453973
3.930723 0.065854 31.006310 -281.910400 283.615448 1230.453974
4.035542 0.065854 1.533236 -281.310455 281.347321 1230.453974
4.140361 0.065854 -16.536432 -287.443420 287.966370 1230.453973
4.245181 0.065854 -11.829236 -293.521423 293.785583 1230.453973
4.350000 0.065854 8.539381 -295.663940 295.792999 1230.453973
4.454819 0.065854 29.052654 -292.949249 294.386444 1230.453973
4.559639 0.065854 34.160297 -286.286560 288.322144 1230.453973
4.664458 0.065854 16.646709 -279.535645 280.032196 1230.453974
4.769277 0.065854 -12.359911 -279.399017 279.677185 1230.453974
4.874096 0.065854 -30.084042 -285.909180 287.498596 1230.453973
4.978916 0.065854 -25.220318 -292.419739 293.507751 1230.453973
5.083735 0.065854 -4.753394 -295.009399 295.048767 1230.453973
5.188554 0.065854 15.871595 -292.736145 293.179535 1230.453973
5.293373 0.065854 21.063766 -286.465271 287.268738 1230.453973
5.398193 0.065854 3.445826 -280.041138 280.081848 1230.453973
5.503012 0.065854 -25.950422 -280.216339 281.416565 1230.453973
5.607831 0.065854 -44.337845 -287.002319 290.406921 1230.453973
5.712651 0.065854 -40.506435 -293.706635 296.491821 1230.453973
5.817470 0.065854 -21.625866 -296.455383 297.271515 1230.453973
5.922289 0.065854 -3.299017 -294.330048 294.421753 1230.453973
6.027108 0.065854 -1.315159 -288.172119 288.298431 1230.453973
6.131928 0.065854 -23.327955 -281.816162 282.897644 1230.453973
6.236747 0.065854 -58.518463 -282.092834 288.173431 1230.453973
6.341566 0.065854 -84.186417 -289.085571 301.184082 1230.453973
6.446386 0.065854 -89.390106 -296.032990 309.426025 1230.453973
6.551205 0.065854 -81.930115 -299.017975 310.432556 1230.453973
6.656024 0.065854 -78.291016 -297.127136 307.974426 1230.453973
6.760843 0.065854 -95.325027 -291.243408 307.494446 1230.453973
6.865663 0.065854 -141.920898 -285.196075 319.699829 1230.453973
6.970482 0.065854 -208.439301 -285.918945 354.901794 1230.453973
7.075301 0.065854 -273.291077 -293.542450 402.304749 1230.453973
7.180120 0.065854 -327.206482 -301.242798 446.416382 1230.453973
7.284940 0.065854 -380.153564 -305.339355 489.719299 1230.453973
7.389759 0.065854 -450.612976 -305.187134 546.564575 1230.453973
7.494578 0.065854 -556.697144 -301.889893 635.290649 1230.453973
7.599398 0.065854 -706.656006 -298.960052 768.628967 1230.453973
7.704217 0.065854 -887.032288 -300.230103 937.213135 1230.453973
7.809036 0.065854 -1070.364868 -297.209686 1111.137451 1230.453972
7.913855 0.065854 -1223.052734 -291.745667 1257.647461 1230.453712
8.018675 0.065854 -1291.651611 -286.747223 1323.296387 1230.420881
8.123494 0.065854 -1219.944824 -270.264160 1249.645630 1228.206198
8.228313 0.065854 -1011.776367 -244.322403 1040.943481 1228.173018
8.333133 0.065854 -730.801392 -211.951111 760.976807 1228.172547
8.437952 0.065854 -433.711060 -184.114517 471.213074 1228.133671
8.542771 0.065854 -142.995819 -168.597656 221.095016 1222.535015
8.647590 0.065854 0.000000 0.000000 0.000000 734.455191
0.052410 0.080488 0.000000 0.000000 0.000000 845.212641
0.157229 0.080488 167.980118 -271.894226 319.627380 1228.010066
0.262048 0.080488 492.765381 -278.199860 565.873779 1232.125248
0.366867 0.080488 805.378845 -314.994690 864.803467 1232.152578
0.471687 0.080488 1092.495239 -357.717682 1149.587402 1232.152763
0.576506 0.080488 1311.187622 -409.618774 1373.708496 1232.158876
0.681325 0.080488 1396.075562 -428.460815 1460.344727 1232.550327
0.786145 0.080488 1331.050049 -431.966797 1399.410522 1232.556379
0.890964 0.080488 1168.960327 -421.915283 1242.840088 1232.556426
0.995783 0.080488 953.403198 -410.963684 1038.468384 1232.556426
1.100602 0.080488 750.807678 -429.005829 866.295410 1232.556426
1.205422 0.080488 596.392822 -431.733398 738.357788 1232.556426
1.310241 0.080488 482.817444 -435.705811 652.538086 1232.556426
1.415060 0.080488 405.097809 -434.377075 595.828491 1232.556426
1.519880 0.080488 344.494507 -426.211731 549.390503 1232.556426
1.624699 0.080488 280.718506 -411.987671 499.415283 1232.556426
1.729518 0.080488 201.583694 -398.269775 446.780823 1232.556426
1.834337 0.080488 132.676834 -408.743164 429.956726 1232.556426
1.939157 0.080488 93.668808 -409.699890 420.791016 1232.556426
2.043976 0.080488 74.783653 -408.364441 415.762665 1232.556426
2.148795 0.080488 72.289047 -407.035187 414.019928 1232.556426
2.253614 0.080488 85.705078 -414.428986 423.594696 1232.556426
2.358434 0.080488 92.316055 -400.022888 410.661163 1232.556426
2.463253 0.080488 68.538864 -385.099304 391.232178 1232.556426
2.568072 0.080488 27.958233 -379.662628 380.775055 1232.556426
2.672892 0.080488 -4.901380 -384.221558 384.265747 1232.556426
2.777711 0.080488 -6.041565 -400.624084 400.674377 1232.556426
2.882530 0.080488 15.691273 -397.683136 398.031433 1232.556426
2.987349 0.080488 32.458118 -387.320648 388.735107 1232.556426
3.092169 0.080488 33.120178 -375.340759 376.879089 1232.556426
3.196988 0.080488 20.172663 -374.418579 375.045471 1232.556426
3.301807 0.080488 0.619646 -370.887512 370.966064 1232.556426
3.406627 0.080488 -11.702259 -376.245056 376.511841 1232.556426
3.511446 0.080488 -2.712747 -382.344940 382.410431 1232.556426
3.616265 0.080488 21.017773 -383.723816 384.324036 1232.556426
3.721084 0.080488 43.811661 -379.070984 381.600586 1232.556426
3.825904 0.080488 49.852264 -369.457397 372.806152 1232.556425
3.930723 0.080488 31.648285 -359.855957 361.248138 1232.556425
4.035542 0.080488 1.090678 -359.089783 359.119019 1232.556425
4.140361 0.080488 -17.511129 -367.018219 367.477539 1232.556425
4.245181 0.080488 -12.484056 -374.810242 375.040344 1232.556426
4.350000 0.080488 8.585100 -377.542999 377.645142 1232.556426
4.454819 0.080488 29.799885 -374.071411 375.256714 1232.556426
4.559639 0.080488 35.230949 -365.525696 367.224823 1232.556425
4.664458 0.080488 17.197205 -356.804321 357.220001 1232.556425
4.769277 0.080488 -12.869335 -356.627380 356.864136 1232.556425
4.874096 0.080488 -31.123367 -365.039062 366.374268 1232.556425
4.978916 0.080488 -25.945404 -373.390259 374.293152 1232.556426
5.083735 0.080488 -4.778581 -376.698517 376.729675 1232.556426
5.188554 0.080488 16.552349 -373.794617 374.172760 1232.556426
5.293373 0.080488 22.077080 -365.752625 366.445374 1232.556425
5.398193 0.080488 3.945316 -357.451843 357.490417 1232.556425
5.503012 0.080488 -26.506741 -357.677917 358.659302 1232.556425
5.607831 0.080488 -45.414516 -366.442719 369.246216 1232.556425
5.712651 0.080488 -41.259537 -375.039429 377.305359 1232.556425
5.817470 0.080488 -21.675488 -378.550049 379.192200 1232.556425
5.922289 0.080488 -2.639037 -375.836060 375.905457 1232.556425
6.027108 0.080488 -0.316175 -367.937988 368.041077 1232.556425
6.131928 0.080488 -22.841768 -359.721008 360.541016 1232.556425
6.236747 0.080488 -59.099152 -360.071411 364.945557 1232.556425
6.341566 0.080488 -85.298828 -369.098694 378.893799 1232.556425
6.446386 0.080488 -90.181274 -378.004700 388.764221 1232.556425
6.551205 0.080488 -82.017075 -381.814941 390.843658 1232.556425
6.656024 0.080488 -77.671478 -379.397156 387.847961 1232.556425
6.760843 0.080488 -94.372475 -371.850586 384.525818 1232.556425
6.865663 0.080488 -141.494751 -364.028809 391.576355 1232.556425