TITLE="(Vx,Vy)"
VARIABLES=X,Y,Vx,Vy,Vm,V
ZONE T="T-Dummy" I=83, J=41, F=POINT
0.052410 0.007317 0.000000 0.000000 0.000000 0.000000
0.157229 0.007317 0.000000 0.000000 0.000000 0.000000
0.262048 0.007317 0.000000 0.000000 0.000000 0.000000
0.366867 0.007317 0.000000 0.000000 0.000000 0.000000
0.471687 0.007317 0.000000 0.000000 0.000000 0.000000
0.576506 0.007317 0.000000 0.000000 0.000000 0.000000
0.681325 0.007317 0.000000 0.000000 0.000000 0.000000
0.786145 0.007317 0.000000 0.000000 0.000000 0.000000
0.890964 0.007317 0.000000 0.000000 0.000000 0.000000
0.995783 0.007317 0.000000 0.000000 0.000000 0.000000
1.100602 0.007317 0.000000 0.000000 0.000000 0.000000
1.205422 0.007317 0.000000 0.000000 0.000000 0.000000
1.310241 0.007317 0.000000 0.000000 0.000000 0.000000
1.415060 0.007317 0.000000 0.000000 0.000000 0.000000
1.519880 0.007317 0.000000 0.000000 0.000000 0.000000
1.624699 0.007317 0.000000 0.000000 0.000000 0.000000
1.729518 0.007317 0.000000 0.000000 0.000000 0.000000
1.834337 0.007317 0.000000 0.000000 0.000000 0.000000
1.939157 0.007317 0.000000 0.000000 0.000000 0.000000
2.043976 0.007317 0.000000 0.000000 0.000000 0.000000
2.148795 0.007317 0.000000 0.000000 0.000000 0.000000
2.253614 0.007317 0.000000 0.000000 0.000000 0.000000
2.358434 0.007317 0.000000 0.000000 0.000000 0.000000
2.463253 0.007317 0.000000 0.000000 0.000000 0.000000
2.568072 0.007317 0.000000 0.000000 0.000000 0.000000
2.672892 0.007317 0.000000 0.000000 0.000000 0.000000
2.777711 0.007317 0.000000 0.000000 0.000000 0.000000
2.882530 0.007317 0.000000 0.000000 0.000000 0.000000
2.987349 0.007317 0.000000 0.000000 0.000000 0.000000
3.092169 0.007317 0.000000 0.000000 0.000000 0.000000
3.196988 0.007317 0.000000 0.000000 0.000000 0.000000
3.301807 0.007317 0.000000 0.000000 0.000000 0.000000
3.406627 0.007317 0.000000 0.000000 0.000000 0.000000
3.511446 0.007317 0.000000 0.000000 0.000000 0.000000
3.616265 0.007317 0.000000 0.000000 0.000000 0.000000
3.721084 0.007317 0.000000 0.000000 0.000000 0.000000
3.825904 0.007317 0.000000 0.000000 0.000000 0.000000
3.930723 0.007317 0.000000 0.000000 0.000000 0.000000
4.035542 0.007317 0.000000 0.000000 0.000000 0.000000
4.140361 0.007317 0.000000 0.000000 0.000000 0.000000
4.245181 0.007317 0.000000 0.000000 0.000000 0.000000
4.350000 0.007317 0.000000 0.000000 0.000000 0.000000
4.454819 0.007317 0.000000 0.000000 0.000000 0.000000
4.559639 0.007317 0.000000 0.000000 0.000000 0.000000
4.664458 0.007317 0.000000 0.000000 0.000000 0.000000
4.769277 0.007317 0.000000 0.000000 0.000000 0.000000
4.874096 0.007317 0.000000 0.000000 0.000000 0.000000
4.978916 0.007317 0.000000 0.000000 0.000000 0.000000
5.083735 0.007317 0.000000 0.000000 0.000000 0.000000
5.188554 0.007317 0.000000 0.000000 0.000000 0.000000
5.293373 0.007317 0.000000 0.000000 0.000000 0.000000
5.398193 0.007317 0.000000 0.000000 0.000000 0.000000
5.503012 0.007317 0.000000 0.000000 0.000000 0.000000
5.607831 0.007317 0.000000 0.000000 0.000000 0.000000
5.712651 0.007317 0.000000 0.000000 0.000000 0.000000
5.817470 0.007317 0.000000 0.000000 0.000000 0.000000
5.922289 0.007317 0.000000 0.000000 0.000000 0.000000
6.027108 0.007317 0.000000 0.000000 0.000000 0.000000
6.131928 0.007317 0.000000 0.000000 0.000000 0.000000
6.236747 0.007317 0.000000 0.000000 0.000000 0.000000
6.341566 0.007317 0.000000 0.000000 0.000000 0.000000
6.446386 0.007317 0.000000 0.000000 0.000000 0.000000
6.551205 0.007317 0.000000 0.000000 0.000000 0.000000
6.656024 0.007317 0.000000 0.000000 0.000000 0.000000
6.760843 0.007317 0.000000 0.000000 0.000000 0.000000
6.865663 0.007317 0.000000 0.000000 0.000000 0.000000
6.970482 0.007317 0.000000 0.000000 0.000000 0.000000
7.075301 0.007317 0.000000 0.000000 0.000000 0.000000
7.180120 0.007317 0.000000 0.000000 0.000000 0.000000
7.284940 0.007317 0.000000 0.000000 0.000000 0.000000
7.389759 0.007317 0.000000 0.000000 0.000000 0.000000
7.494578 0.007317 0.000000 0.000000 0.000000 0.000000
7.599398 0.007317 0.000000 0.000000 0.000000 0.000000
7.704217 0.007317 0.000000 0.000000 0.000000 0.000000
7.809036 0.007317 0.000000 0.000000 0.000000 0.000000
7.913855 0.007317 0.000000 0.000000 0.000000 0.000000
8.018675 0.007317 0.000000 0.000000 0.000000 0.000000
8.123494 0.007317 0.000000 0.000000 0.000000 0.000000
8.228313 0.007317 0.000000 0.000000 0.000000 0.000000
8.333133 0.007317 0.000000 0.000000 0.000000 0.000000
8.437952 0.007317 0.000000 0.000000 0.000000 0.000000
8.542771 0.007317 0.000000 0.000000 0.000000 0.000000
8.647590 0.007317 0.000000 0.000000 0.000000 0.000000
0.052410 0.021951 0.000000 0.000000 0.000000 0.000000
0.157229 0.021951 -0.006223 0.000350 0.900000 0.006233
0.262048 0.021951 -0.017431 0.000277 0.900000 0.017433
0.366867 0.021951 -0.026208 0.000187 0.900000 0.026208
0.471687 0.021951 -0.031855 -0.000073 0.900000 0.031855
0.576506 0.021951 -0.037169 0.000202 0.900000 0.037170
0.681325 0.021951 -0.040090 -0.000496 0.900000 0.040093
0.786145 0.021951 -0.035447 -0.000710 0.900000 0.035454
0.890964 0.021951 -0.032352 0.000232 0.900000 0.032353
0.995783 0.021951 -0.035542 -0.000239 0.900000 0.035543
1.100602 0.021951 -0.037915 -0.000561 0.900000 0.037919
1.205422 0.021951 -0.037160 -0.000733 0.900000 0.037167
1.310241 0.021951 -0.035770 -0.000935 0.900000 0.035782
1.415060 0.021951 -0.035548 -0.000605 0.900000 0.035553
1.519880 0.021951 -0.029518 -0.002013 0.900000 0.029587
1.624699 0.021951 -0.021412 -0.000854 0.900000 0.021429
1.729518 0.021951 -0.021409 -0.000625 0.900000 0.021418
1.834337 0.021951 -0.021436 -0.000802 0.900000 0.021451
1.939157 0.021951 -0.026348 0.000830 0.900000 0.026361
2.043976 0.021951 -0.031770 -0.001624 0.900000 0.031811
2.148795 0.021951 -0.023310 -0.002539 0.900000 0.023448
2.253614 0.021951 -0.025888 -0.000065 0.900000 0.025888
2.358434 0.021951 -0.032795 -0.002294 0.900000 0.032876
2.463253 0.021951 -0.028535 -0.002272 0.900000 0.028625
2.568072 0.021951 -0.030615 -0.002492 0.900000 0.030716
2.672892 0.021951 -0.032468 -0.002709 0.900000 0.032581
2.777711 0.021951 -0.028112 -0.002768 0.900000 0.028248
2.882530 0.021951 -0.025133 -0.001381 0.900000 0.025171
2.987349 0.021951 -0.033152 -0.000618 0.900000 0.033158
3.092169 0.021951 -0.038770 -0.001450 0.900000 0.038797
3.196988 0.021951 -0.021611 -0.002945 0.900000 0.021811
3.301807 0.021951 -0.013086 0.000367 0.900000 0.013091
3.406627 0.021951 -0.022660 -0.001647 0.900000 0.022720
3.511446 0.021951 -0.020025 -0.002551 0.900000 0.020187
3.616265 0.021951 -0.014351 -0.002354 0.900000 0.014543
3.721084 0.021951 -0.016862 -0.003037 0.900000 0.017134
3.825904 0.021951 -0.011632 -0.003507 0.900000 0.012149
3.930723 0.021951 -0.003612 -0.002314 0.900000 0.004289
4.035542 0.021951 -0.015402 -0.000176 0.900000 0.015403
4.140361 0.021951 -0.019674 -0.003571 0.900000 0.019995
4.245181 0.021951 0.010240 -0.005257 0.900000 0.011511
4.350000 0.021951 0.027423 -0.000603 0.900000 0.027429
4.454819 0.021951 0.024744 -0.002084 0.900000 0.024831
4.559639 0.021951 0.034337 -0.002347 0.900000 0.034417
4.664458 0.021951 0.025166 0.001495 0.900000 0.025210
4.769277 0.021951 0.002191 -0.001819 0.900000 0.002848
4.874096 0.021951 0.011076 -0.004441 0.900000 0.011933
4.978916 0.021951 0.001712 0.001225 0.900000 0.002105
5.083735 0.021951 -0.009965 -0.004093 0.900000 0.010772
5.188554 0.021951 0.005198 -0.002909 0.900000 0.005956
5.293373 0.021951 0.004479 -0.001745 0.900000 0.004807
5.398193 0.021951 0.004751 -0.002818 0.900000 0.005524
5.503012 0.021951 0.016712 -0.002900 0.900000 0.016962
5.607831 0.021951 0.028651 -0.001600 0.900000 0.028696
5.712651 0.021951 0.027249 0.000398 0.900000 0.027252
5.817470 0.021951 0.011633 0.000242 0.900000 0.011636
5.922289 0.021951 0.002559 -0.000765 0.900000 0.002671
6.027108 0.021951 0.002894 -0.000988 0.900000 0.003058
6.131928 0.021951 0.000603 -0.001573 0.900000 0.001685
6.236747 0.021951 0.007550 -0.002233 0.900000 0.007874
6.341566 0.021951 0.009615 0.000306 0.900000 0.009620
6.446386 0.021951 0.006814 -0.001162 0.900000 0.006912
6.551205 0.021951 0.008100 -0.000617 0.900000 0.008124
6.656024 0.021951 0.010673 -0.002416 0.900000 0.010943
6.760843 0.021951 0.014232 -0.001632 0.900000 0.014325
6.865663 0.021951 0.013997 -0.001550 0.900000 0.014083
6.970482 0.021951 0.016453 -0.001399 0.900000 0.016512
7.075301 0.021951 0.017252 -0.000877 0.900000 0.017274
7.180120 0.021951 0.012313 0.000018 0.900000 0.012313
7.284940 0.021951 0.007105 -0.000493 0.900000 0.007122
7.389759 0.021951 0.004581 -0.000471 0.900000 0.004605
7.494578 0.021951 0.011665 -0.001674 0.900000 0.011785
7.599398 0.021951 0.019524 0.000007 0.900000 0.019524
7.704217 0.021951 0.013573 0.000364 0.900000 0.013578
7.809036 0.021951 0.012680 -0.000923 0.900000 0.012713
7.913855 0.021951 0.020330 -0.000644 0.900000 0.020340
8.018675 0.021951 0.022570 -0.000334 0.900000 0.022573
8.123494 0.021951 0.016612 0.000630 0.900000 0.016624
8.228313 0.021951 0.009876 0.000164 0.900000 0.009878
8.333133 0.021951 0.006101 0.000170 0.900000 0.006104
8.437952 0.021951 0.003205 -0.000052 0.900000 0.003205
8.542771 0.021951 0.001188 0.000019 0.900000 0.001188
8.647590 0.021951 0.000000 0.000000 0.000000 0.000000
0.052410 0.036585 0.000000 0.000000 0.000000 0.000000
0.157229 0.036585 -0.006159 0.001044 0.900000 0.006247
0.262048 0.036585 -0.017314 0.000838 0.900000 0.017335
0.366867 0.036585 -0.026045 0.000551 0.900000 0.026051
0.471687 0.036585 -0.031987 -0.000161 0.900000 0.031987
0.576506 0.036585 -0.038460 0.000764 0.900000 0.038468
0.681325 0.036585 -0.051288 -0.000056 0.900000 0.051288
0.786145 0.036585 -0.053595 -0.002230 0.900000 0.053642
0.890964 0.036585 -0.041031 -0.000232 0.900000 0.041031
0.995783 0.036585 -0.040290 -0.000147 0.900000 0.040290
1.100602 0.036585 -0.048700 -0.000497 0.900000 0.048702
1.205422 0.036585 -0.052638 -0.001060 0.900000 0.052649
1.310241 0.036585 -0.054155 -0.001680 0.900000 0.054181
1.415060 0.036585 -0.048376 -0.001648 0.900000 0.048404
1.519880 0.036585 -0.044097 -0.003655 0.900000 0.044248
1.624699 0.036585 -0.035766 -0.002606 0.900000 0.035861
1.729518 0.036585 -0.036728 0.000533 0.900000 0.036732
1.834337 0.036585 -0.045477 -0.001294 0.900000 0.045495
1.939157 0.036585 -0.039099 0.002265 0.900000 0.039165
2.043976 0.036585 -0.050252 -0.001736 0.900000 0.050282
2.148795 0.036585 -0.058450 -0.006046 0.900000 0.058762
2.253614 0.036585 -0.063792 0.001520 0.900000 0.063810
2.358434 0.036585 -0.073338 -0.005710 0.900000 0.073560
2.463253 0.036585 -0.068800 -0.005587 0.900000 0.069026
2.568072 0.036585 -0.072660 -0.006086 0.900000 0.072914
2.672892 0.036585 -0.077027 -0.006835 0.900000 0.077330
2.777711 0.036585 -0.075799 -0.006671 0.900000 0.076092
2.882530 0.036585 -0.077228 -0.002369 0.900000 0.077265
2.987349 0.036585 -0.084052 -0.001839 0.900000 0.084072
3.092169 0.036585 -0.085943 -0.003398 0.900000 0.086011
3.196988 0.036585 -0.067083 -0.007821 0.900000 0.067537
3.301807 0.036585 -0.040094 -0.001189 0.900000 0.040111
3.406627 0.036585 -0.047247 -0.002333 0.900000 0.047305
3.511446 0.036585 -0.066170 -0.003879 0.900000 0.066284
3.616265 0.036585 -0.069823 -0.004034 0.900000 0.069940
3.721084 0.036585 -0.070533 -0.006685 0.900000 0.070849
3.825904 0.036585 -0.056111 -0.007801 0.900000 0.056651
3.930723 0.036585 -0.058751 -0.002489 0.900000 0.058803
4.035542 0.036585 -0.075186 0.000911 0.900000 0.075192
4.140361 0.036585 -0.070439 -0.006941 0.900000 0.070780
4.245181 0.036585 -0.045341 -0.011551 0.900000 0.046789
4.350000 0.036585 -0.014749 -0.000583 0.900000 0.014761
4.454819 0.036585 -0.027875 0.000558 0.900000 0.027881
4.559639 0.036585 -0.035683 -0.005890 0.900000 0.036166
4.664458 0.036585 -0.007026 0.002127 0.900000 0.007341
4.769277 0.036585 -0.033491 0.000270 0.900000 0.033492
4.874096 0.036585 -0.050072 -0.011927 0.900000 0.051473
4.978916 0.036585 -0.017533 -0.000304 0.900000 0.017536
5.083735 0.036585 -0.036394 -0.004877 0.900000 0.036719
5.188554 0.036585 -0.058182 -0.008309 0.900000 0.058773
5.293373 0.036585 -0.052665 -0.003842 0.900000 0.052805
5.398193 0.036585 -0.049572 -0.007930 0.900000 0.050202
5.503012 0.036585 -0.035169 -0.007544 0.900000 0.035969
5.607831 0.036585 -0.020284 -0.004829 0.900000 0.020850
5.712651 0.036585 -0.002573 -0.000962 0.900000 0.002747
5.817470 0.036585 -0.011816 0.002192 0.900000 0.012017
5.922289 0.036585 -0.031367 -0.000040 0.900000 0.031367
6.027108 0.036585 -0.033115 -0.001031 0.900000 0.033131
6.131928 0.036585 -0.034113 -0.003101 0.900000 0.034253
6.236747 0.036585 -0.021365 -0.005021 0.900000 0.021947
6.341566 0.036585 -0.017771 0.003121 0.900000 0.018043
6.446386 0.036585 -0.012645 -0.003147 0.900000 0.013031
6.551205 0.036585 -0.003542 0.000436 0.900000 0.003569
6.656024 0.036585 -0.008046 -0.005094 0.900000 0.009523
6.760843 0.036585 -0.013975 -0.002806 0.900000 0.014254
6.865663 0.036585 -0.016854 -0.003400 0.900000 0.017193
6.970482 0.036585 -0.012380 -0.003042 0.900000 0.012749
7.075301 0.036585 -0.009617 -0.001965 0.900000 0.009816
7.180120 0.036585 -0.011156 0.000428 0.900000 0.011164
7.284940 0.036585 -0.013119 -0.000860 0.900000 0.013147
7.389759 0.036585 -0.015586 -0.000954 0.900000 0.015615
7.494578 0.036585 -0.005712 -0.004980 0.900000 0.007579
7.599398 0.036585 0.011284 -0.000205 0.900000 0.011286
7.704217 0.036585 0.002465 0.002334 0.900000 0.003394
7.809036 0.036585 0.001035 -0.003666 0.900000 0.003809
7.913855 0.036585 0.015066 -0.001587 0.900000 0.015149
8.018675 0.036585 0.016120 -0.001127 0.900000 0.016160
8.123494 0.036585 0.012962 0.001434 0.900000 0.013041
8.228313 0.036585 0.009252 0.000501 0.900000 0.009265
8.333133 0.036585 0.005829 0.000431 0.900000 0.005845
8.437952 0.036585 0.003356 -0.000131 0.900000 0.003358
8.542771 0.036585 0.001192 0.000063 0.900000 0.001193
8.647590 0.036585 0.000000 0.000000 0.000000 0.000000
0.052410 0.051220 0.000000 0.000000 0.000000 0.000000
0.157229 0.051220 -0.006096 0.001725 0.900000 0.006336
0.262048 0.051220 -0.017129 0.001405 0.900000 0.017187
0.366867 0.051220 -0.025835 0.000907 0.900000 0.025851
0.471687 0.051220 -0.031961 -0.000166 0.900000 0.031961
0.576506 0.051220 -0.037988 0.001436 0.900000 0.038015
0.681325 0.051220 -0.047597 0.001472 0.900000 0.047620
0.786145 0.051220 -0.049673 -0.003481 0.900000 0.049795
0.890964 0.051220 -0.040890 -0.001394 0.900000 0.040914
0.995783 0.051220 -0.040977 0.000434 0.900000 0.040979
1.100602 0.051220 -0.047161 0.000406 0.900000 0.047163
1.205422 0.051220 -0.048828 -0.000412 0.900000 0.048830
1.310241 0.051220 -0.050066 -0.001293 0.900000 0.050082
1.415060 0.051220 -0.047043 -0.002212 0.900000 0.047095
1.519880 0.051220 -0.043580 -0.003088 0.900000 0.043689
1.624699 0.051220 -0.036114 -0.004140 0.900000 0.036351
1.729518 0.051220 -0.035451 0.003433 0.900000 0.035617
1.834337 0.051220 -0.041843 -0.000624 0.900000 0.041848
1.939157 0.051220 -0.037273 0.003415 0.900000 0.037429
2.043976 0.051220 -0.045690 0.000924 0.900000 0.045699
2.148795 0.051220 -0.052494 -0.007674 0.900000 0.053052
2.253614 0.051220 -0.057361 0.004911 0.900000 0.057571
2.358434 0.051220 -0.065535 -0.007746 0.900000 0.065991
2.463253 0.051220 -0.061201 -0.007466 0.900000 0.061654
2.568072 0.051220 -0.064446 -0.007934 0.900000 0.064933
2.672892 0.051220 -0.068902 -0.009252 0.900000 0.069521
2.777711 0.051220 -0.068699 -0.008515 0.900000 0.069225
2.882530 0.051220 -0.068966 -0.001765 0.900000 0.068989
2.987349 0.051220 -0.073234 -0.002856 0.900000 0.073290
3.092169 0.051220 -0.073467 -0.004512 0.900000 0.073605
3.196988 0.051220 -0.058843 -0.010743 0.900000 0.059816
3.301807 0.051220 -0.040564 -0.004332 0.900000 0.040794
3.406627 0.051220 -0.049781 -0.000456 0.900000 0.049783
3.511446 0.051220 -0.061808 -0.002391 0.900000 0.061854
3.616265 0.051220 -0.057585 -0.003134 0.900000 0.057670
3.721084 0.051220 -0.058576 -0.007636 0.900000 0.059072
3.825904 0.051220 -0.052515 -0.008604 0.900000 0.053216
3.930723 0.051220 -0.051290 0.000516 0.900000 0.051293
4.035542 0.051220 -0.057816 0.002961 0.900000 0.057892
4.140361 0.051220 -0.054191 -0.006490 0.900000 0.054579
4.245181 0.051220 -0.037468 -0.013045 0.900000 0.039674
4.350000 0.051220 -0.013639 0.000931 0.900000 0.013671
4.454819 0.051220 -0.016072 0.007682 0.900000 0.017814
4.559639 0.051220 -0.019602 -0.007907 0.900000 0.021137
4.664458 0.051220 -0.001358 0.001015 0.900000 0.001696
4.769277 0.051220 -0.018286 0.006153 0.900000 0.019293
4.874096 0.051220 -0.033835 -0.016076 0.900000 0.037460
4.978916 0.051220 -0.018234 -0.004812 0.900000 0.018858
5.083735 0.051220 -0.028835 0.000073 0.900000 0.028835
5.188554 0.051220 -0.044751 -0.012006 0.900000 0.046334
5.293373 0.051220 -0.046691 -0.003980 0.900000 0.046860
5.398193 0.051220 -0.043024 -0.012196 0.900000 0.044719
5.503012 0.051220 -0.029814 -0.010339 0.900000 0.031556
5.607831 0.051220 -0.018418 -0.007661 0.900000 0.019948
5.712651 0.051220 -0.004562 -0.004067 0.900000 0.006112
5.817470 0.051220 -0.011275 0.004814 0.900000 0.012260
5.922289 0.051220 -0.023743 0.002332 0.900000 0.023858
6.027108 0.051220 -0.021852 0.000393 0.900000 0.021855
6.131928 0.051220 -0.024319 -0.002734 0.900000 0.024473
6.236747 0.051220 -0.016158 -0.006330 0.900000 0.017354
6.341566 0.051220 -0.004052 0.006541 0.900000 0.007694
6.446386 0.051220 -0.002739 -0.003139 0.900000 0.004166
6.551205 0.051220 -0.004837 0.003249 0.900000 0.005827
6.656024 0.051220 -0.011798 -0.005060 0.900000 0.012838
6.760843 0.051220 -0.016417 -0.002597 0.900000 0.016622
6.865663 0.051220 -0.014597 -0.003700 0.900000 0.015058
6.970482 0.051220 -0.011691 -0.003535 0.900000 0.012214
7.075301 0.051220 -0.009214 -0.002209 0.900000 0.009475
7.180120 0.051220 -0.010129 0.001090 0.900000 0.010187
7.284940 0.051220 -0.010276 -0.000793 0.900000 0.010307
7.389759 0.051220 -0.012435 -0.000789 0.900000 0.012460
7.494578 0.051220 -0.006044 -0.007761 0.900000 0.009836
7.599398 0.051220 0.008910 -0.000706 0.900000 0.008938
7.704217 0.051220 0.009766 0.004358 0.900000 0.010695
7.809036 0.051220 0.007889 -0.005990 0.900000 0.009905
7.913855 0.051220 0.012584 -0.002169 0.900000 0.012770
8.018675 0.051220 0.013593 -0.001924 0.900000 0.013728
8.123494 0.051220 0.011346 0.001634 0.900000 0.011463
8.228313 0.051220 0.008817 0.000819 0.900000 0.008855
8.333133 0.051220 0.005751 0.000586 0.900000 0.005781
8.437952 0.051220 0.003450 -0.000176 0.900000 0.003454
8.542771 0.051220 0.001211 0.000118 0.900000 0.001217
8.647590 0.051220 0.000000 0.000000 0.000000 0.000000
0.052410 0.065854 0.000000 0.000000 0.000000 0.000000
0.157229 0.065854 -0.006126 0.002407 0.900000 0.006582
0.262048 0.065854 -0.016921 0.001931 0.900000 0.017031
0.366867 0.065854 -0.025646 0.001300 0.900000 0.025679
0.471687 0.065854 -0.032147 -0.000124 0.900000 0.032147
0.576506 0.065854 -0.037474 0.001970 0.900000 0.037525
0.681325 0.065854 -0.044708 0.002462 0.900000 0.044776
0.786145 0.065854 -0.046905 -0.004094 0.900000 0.047083
0.890964 0.065854 -0.040769 -0.002177 0.900000 0.040827
0.995783 0.065854 -0.041379 0.000932 0.900000 0.041390
1.100602 0.065854 -0.046106 0.000750 0.900000 0.046112
1.205422 0.065854 -0.046619 0.000016 0.900000 0.046619
1.310241 0.065854 -0.047060 -0.001070 0.900000 0.047072
1.415060 0.065854 -0.045081 -0.002308 0.900000 0.045140
1.519880 0.065854 -0.042813 -0.002715 0.900000 0.042899
1.624699 0.065854 -0.036377 -0.005293 0.900000 0.036760
1.729518 0.065854 -0.034667 0.005216 0.900000 0.035057
1.834337 0.065854 -0.039459 0.000082 0.900000 0.039459
1.939157 0.065854 -0.035764 0.003971 0.900000 0.035983
2.043976 0.065854 -0.040441 0.002818 0.900000 0.040539
2.148795 0.065854 -0.047400 -0.008405 0.900000 0.048140
2.253614 0.065854 -0.052314 0.008087 0.900000 0.052935
2.358434 0.065854 -0.058134 -0.009281 0.900000 0.058870
2.463253 0.065854 -0.056287 -0.008685 0.900000 0.056953
2.568072 0.065854 -0.060765 -0.009087 0.900000 0.061441
2.672892 0.065854 -0.065640 -0.010907 0.900000 0.066540
2.777711 0.065854 -0.066685 -0.009534 0.900000 0.067363
2.882530 0.065854 -0.064649 -0.001716 0.900000 0.064671
2.987349 0.065854 -0.066145 -0.003451 0.900000 0.066235
3.092169 0.065854 -0.067575 -0.005545 0.900000 0.067802
3.196988 0.065854 -0.055968 -0.012165 0.900000 0.057275
3.301807 0.065854 -0.042837 -0.006245 0.900000 0.043290
3.406627 0.065854 -0.051014 0.001007 0.900000 0.051024
3.511446 0.065854 -0.058843 -0.001954 0.900000 0.058876
3.616265 0.065854 -0.053508 -0.002818 0.900000 0.053582
3.721084 0.065854 -0.055708 -0.007969 0.900000 0.056275
3.825904 0.065854 -0.053068 -0.008590 0.900000 0.053759
3.930723 0.065854 -0.049047 0.001834 0.900000 0.049081
4.035542 0.065854 -0.051536 0.004418 0.900000 0.051725
4.140361 0.065854 -0.047824 -0.005895 0.900000 0.048186
4.245181 0.065854 -0.036983 -0.013009 0.900000 0.039204
4.350000 0.065854 -0.012680 0.001906 0.900000 0.012822
4.454819 0.065854 -0.006297 0.011305 0.900000 0.012941
4.559639 0.065854 -0.011791 -0.008972 0.900000 0.014817
4.664458 0.065854 -0.000791 0.001048 0.900000 0.001313
4.769277 0.065854 -0.012393 0.008979 0.900000 0.015304
4.874096 0.065854 -0.023236 -0.017616 0.900000 0.029159
4.978916 0.065854 -0.015769 -0.007509 0.900000 0.017465
5.083735 0.065854 -0.025994 0.002920 0.900000 0.026158
5.188554 0.065854 -0.039507 -0.013861 0.900000 0.041868
5.293373 0.065854 -0.044945 -0.003088 0.900000 0.045051
5.398193 0.065854 -0.042113 -0.015724 0.900000 0.044953
5.503012 0.065854 -0.029562 -0.012048 0.900000 0.031923
5.607831 0.065854 -0.019302 -0.009796 0.900000 0.021646
5.712651 0.065854 -0.007970 -0.006359 0.900000 0.010196
5.817470 0.065854 -0.012323 0.006071 0.900000 0.013737
5.922289 0.065854 -0.019506 0.003794 0.900000 0.019872
6.027108 0.065854 -0.015525 0.000968 0.900000 0.015555
6.131928 0.065854 -0.018946 -0.001879 0.900000 0.019038
6.236747 0.065854 -0.014971 -0.007801 0.900000 0.016881
6.341566 0.065854 0.006260 0.006765 0.900000 0.009217
6.446386 0.065854 0.008047 -0.000244 0.900000 0.008051
6.551205 0.065854 -0.004245 0.005329 0.900000 0.006813
6.656024 0.065854 -0.014858 -0.003923 0.900000 0.015367
6.760843 0.065854 -0.018665 -0.003611 0.900000 0.019011
6.865663 0.065854 -0.012827 -0.003562 0.900000 0.013313
6.970482 0.065854 -0.012491 -0.003768 0.900000 0.013047
7.075301 0.065854 -0.009274 -0.002575 0.900000 0.009625
7.180120 0.065854 -0.007555 0.001521 0.900000 0.007707
7.284940 0.065854 -0.007651 -0.000906 0.900000 0.007705
7.389759 0.065854 -0.010379 -0.000239 0.900000 0.010382
7.494578 0.065854 -0.006598 -0.009679 0.900000 0.011714
7.599398 0.065854 0.006388 -0.001247 0.900000 0.006509
7.704217 0.065854 0.014963 0.004134 0.900000 0.015524
7.809036 0.065854 0.013840 -0.006043 0.900000 0.015102
7.913855 0.065854 0.011140 -0.002617 0.900000 0.011443
8.018675 0.065854 0.011568 -0.002497 0.900000 0.011834
8.123494 0.065854 0.009805 0.001613 0.900000 0.009937
8.228313 0.065854 0.008455 0.001014 0.900000 0.008516
8.333133 0.065854 0.005979 0.000711 0.900000 0.006021
8.437952 0.065854 0.003577 -0.000194 0.900000 0.003583
8.542771 0.065854 0.001226 0.000186 0.900000 0.001240
8.647590 0.065854 0.000000 0.000000 0.000000 0.000000
0.052410 0.080488 0.000000 0.000000 0.000000 0.000000
0.157229 0.080488 -0.006182 0.003105 0.900000 0.006918
0.262048 0.080488 -0.017034 0.002418 0.900000 0.017205
0.366867 0.080488 -0.025791 0.001730 0.900000 0.025849
0.471687 0.080488 -0.032363 -0.000044 0.900000 0.032363
0.576506 0.080488 -0.037027 0.002333 0.900000 0.037100
0.681325 0.080488 -0.042352 0.003093 0.900000 0.042465
0.786145 0.080488 -0.044654 -0.004228 0.900000 0.044853
0.890964 0.080488 -0.040797 -0.002659 0.900000 0.040883
0.995783 0.080488 -0.041403 0.001351 0.900000 0.041425
1.100602 0.080488 -0.044790 0.000815 0.900000 0.044798
1.205422 0.080488 -0.044897 0.000347 0.900000 0.044898
1.310241 0.080488 -0.045506 -0.001062 0.900000 0.045518
1.415060 0.080488 -0.044212 -0.002258 0.900000 0.044270
1.519880 0.080488 -0.042173 -0.002347 0.900000 0.042239
1.624699 0.080488 -0.036496 -0.006245 0.900000 0.037027
1.729518 0.080488 -0.033968 0.006234 0.900000 0.034535
1.834337 0.080488 -0.037110 0.000667 0.900000 0.037116
1.939157 0.080488 -0.034457 0.003668 0.900000 0.034652
2.043976 0.080488 -0.036321 0.003822 0.900000 0.036522
2.148795 0.080488 -0.042029 -0.008199 0.900000 0.042822
2.253614 0.080488 -0.049793 0.010795 0.900000 0.050949
2.358434 0.080488 -0.054425 -0.010643 0.900000 0.055456
2.463253 0.080488 -0.051968 -0.009467 0.900000 0.052823
2.568072 0.080488 -0.057600 -0.009655 0.900000 0.058403
2.672892 0.080488 -0.062973 -0.012103 0.900000 0.064126
2.777711 0.080488 -0.064841 -0.009896 0.900000 0.065592
2.882530 0.080488 -0.062302 -0.002696 0.900000 0.062361
2.987349 0.080488 -0.061318 -0.003826 0.900000 0.061437
3.092169 0.080488 -0.061932 -0.006512 0.900000 0.062273
3.196988 0.080488 -0.053149 -0.012659 0.900000 0.054636
3.301807 0.080488 -0.044831 -0.007524 0.900000 0.045458
3.406627 0.080488 -0.052011 0.001775 0.900000 0.052042
3.511446 0.080488 -0.056498 -0.001569 0.900000 0.056520
3.616265 0.080488 -0.051740 -0.002707 0.900000 0.051811
3.721084 0.080488 -0.054470 -0.007824 0.900000 0.055029
3.825904 0.080488 -0.053140 -0.008449 0.900000 0.053807
3.930723 0.080488 -0.046872 0.002428 0.900000 0.046935
4.035542 0.080488 -0.044896 0.005501 0.900000 0.045232
4.140361 0.080488 -0.040868 -0.005029 0.900000 0.041177
4.245181 0.080488 -0.036171 -0.011156 0.900000 0.037852
4.350000 0.080488 -0.016032 0.002054 0.900000 0.016163
4.454819 0.080488 -0.002605 0.012953 0.900000 0.013213
4.559639 0.080488 -0.005321 -0.009000 0.900000 0.010456
4.664458 0.080488 -0.000298 0.002074 0.900000 0.002096
4.769277 0.080488 -0.009992 0.010150 0.900000 0.014243
4.874096 0.080488 -0.018925 -0.018171 0.900000 0.026236
4.978916 0.080488 -0.015699 -0.008995 0.900000 0.018094
5.083735 0.080488 -0.023614 0.005071 0.900000 0.024152
5.188554 0.080488 -0.034851 -0.014677 0.900000 0.037815
5.293373 0.080488 -0.043449 -0.001105 0.900000 0.043463
5.398193 0.080488 -0.041561 -0.018603 0.900000 0.045535
5.503012 0.080488 -0.028970 -0.012989 0.900000 0.031749
5.607831 0.080488 -0.019652 -0.011406 0.900000 0.022722
5.712651 0.080488 -0.009668 -0.008041 0.900000 0.012574
5.817470 0.080488 -0.012587 0.006481 0.900000 0.014157
5.922289 0.080488 -0.016754 0.004702 0.900000 0.017401
6.027108 0.080488 -0.013127 0.001154 0.900000 0.013177
6.131928 0.080488 -0.018113 -0.000803 0.900000 0.018130
6.236747 0.080488 -0.015973 -0.009064 0.900000 0.018366
6.341566 0.080488 0.003125 0.005546 0.900000 0.006366
6.446386 0.080488 0.006500 0.003365 0.900000 0.007320
6.551205 0.080488 -0.003223 0.007143 0.900000 0.007837
6.656024 0.080488 -0.011019 -0.002584 0.900000 0.011318
6.760843 0.080488 -0.015241 -0.004547 0.900000 0.015905
6.865663 0.080488 -0.012074 -0.003665 0.900000 0.012618
6.970482 0.080488 -0.012119 -0.003498 0.900000 0.012614
7.075301 0.080488 -0.009997 -0.003142 0.900000 0.010479
7.180120 0.080488 -0.007009 0.001615 0.900000 0.007193
7.284940 0.080488 -0.005246 -0.001018 0.900000 0.005344
7.389759 0.080488 -0.002229 -0.000105 0.900000 0.002231
7.494578 0.080488 -0.001210 -0.010014 0.900000 0.010086
7.599398 0.080488 0.003854 -0.001736 0.900000 0.004228
7.704217 0.080488 0.012349 0.002870 0.900000 0.012679
7.809036 0.080488 0.011940 -0.005256 0.900000 0.013045
7.913855 0.080488 0.009854 -0.002888 0.900000 0.010268
8.018675 0.080488 0.010000 -0.002898 0.900000 0.010411
8.123494 0.080488 0.008362 0.001529 0.900000 0.008500
8.228313 0.080488 0.007661 0.001033 0.900000 0.007731
8.333133 0.080488 0.005930 0.000791 0.900000 0.005982
8.437952 0.080488 0.003693 -0.000179 0.900000 0.003698
8.542771 0.080488 0.001239 0.000264 0.900000 0.001267
8.647590 0.080488 0.000000 0.000000 0.000000 0.000000
0.052410 0.095122 0.000000 0.000000 0.000000 0.000000
0.157229 0.095122 -0.006096 0.003803 0.900000 0.007185
0.262048 0.095122 -0.017093 0.002937 0.900000 0.017344
0.366867 0.095122 -0.025766 0.002112 0.900000 0.025853
0.471687 0.095122 -0.032286 0.000096 0.900000 0.032286
0.576506 0.095122 -0.036564 0.002510 0.900000 0.036650
0.681325 0.095122 -0.040340 0.003412 0.900000 0.040484
0.786145 0.095122 -0.042758 -0.004127 0.900000 0.042957
0.890964 0.095122 -0.040755 -0.002872 0.900000 0.040856
0.995783 0.095122 -0.041386 0.001481 0.900000 0.041412
1.100602 0.095122 -0.043845 0.000813 0.900000 0.043852
1.205422 0.095122 -0.043876 0.000631 0.900000 0.043881
1.310241 0.095122 -0.044413 -0.001165 0.900000 0.044429
1.415060 0.095122 -0.043434 -0.002264 0.900000 0.043493
1.519880 0.095122 -0.041836 -0.002154 0.900000 0.041892
1.624699 0.095122 -0.036747 -0.007078 0.900000 0.037422
1.729518 0.095122 -0.034763 0.006896 0.900000 0.035440
1.834337 0.095122 -0.036553 0.000898 0.900000 0.036564
1.939157 0.095122 -0.033433 0.003157 0.900000 0.033582
2.043976 0.095122 -0.035206 0.004215 0.900000 0.035457
2.148795 0.095122 -0.038126 -0.007805 0.900000 0.038916
2.253614 0.095122 -0.035746 0.011950 0.900000 0.037690
2.358434 0.095122 -0.042263 -0.010630 0.900000 0.043579
2.463253 0.095122 -0.049993 -0.010431 0.900000 0.051070
2.568072 0.095122 -0.055475 -0.009815 0.900000 0.056336
2.672892 0.095122 -0.061481 -0.013015 0.900000 0.062843
2.777711 0.095122 -0.064274 -0.009769 0.900000 0.065012
2.882530 0.095122 -0.061429 -0.004849 0.900000 0.061620
2.987349 0.095122 -0.058228 -0.004283 0.900000 0.058385
3.092169 0.095122 -0.056944 -0.007823 0.900000 0.057479
3.196988 0.095122 -0.050369 -0.012518 0.900000 0.051901
3.301807 0.095122 -0.045594 -0.008711 0.900000 0.046419
3.406627 0.095122 -0.051733 0.002024 0.900000 0.051772
3.511446 0.095122 -0.054483 -0.001107 0.900000 0.054494
3.616265 0.095122 -0.050649 -0.002588 0.900000 0.050715
3.721084 0.095122 -0.054056 -0.007637 0.900000 0.054593
3.825904 0.095122 -0.053587 -0.008016 0.900000 0.054183
3.930723 0.095122 -0.045670 0.002569 0.900000 0.045743
4.035542 0.095122 -0.039278 0.005944 0.900000 0.039725
4.140361 0.095122 -0.034066 -0.003821 0.900000 0.034280
4.245181 0.095122 -0.026932 -0.008915 0.900000 0.028369
4.350000 0.095122 -0.010523 0.002174 0.900000 0.010745
4.454819 0.095122 -0.000143 0.013431 0.900000 0.013432