TITLE="(Vx,Vy)"
VARIABLES=X,Y,Vx,Vy,Vm,V
ZONE T="T-Dummy" I=83, J=41, F=POINT
0.052410 0.007317 0.000000 0.000000 0.000000 0.000000
0.157229 0.007317 0.000000 0.000000 0.000000 0.000000
0.262048 0.007317 0.000000 0.000000 0.000000 0.000000
0.366867 0.007317 0.000000 0.000000 0.000000 0.000000
0.471687 0.007317 0.000000 0.000000 0.000000 0.000000
0.576506 0.007317 0.000000 0.000000 0.000000 0.000000
0.681325 0.007317 0.000000 0.000000 0.000000 0.000000
0.786145 0.007317 0.000000 0.000000 0.000000 0.000000
0.890964 0.007317 0.000000 0.000000 0.000000 0.000000
0.995783 0.007317 0.000000 0.000000 0.000000 0.000000
1.100602 0.007317 0.000000 0.000000 0.000000 0.000000
1.205422 0.007317 0.000000 0.000000 0.000000 0.000000
1.310241 0.007317 0.000000 0.000000 0.000000 0.000000
1.415060 0.007317 0.000000 0.000000 0.000000 0.000000
1.519880 0.007317 0.000000 0.000000 0.000000 0.000000
1.624699 0.007317 0.000000 0.000000 0.000000 0.000000
1.729518 0.007317 0.000000 0.000000 0.000000 0.000000
1.834337 0.007317 0.000000 0.000000 0.000000 0.000000
1.939157 0.007317 0.000000 0.000000 0.000000 0.000000
2.043976 0.007317 0.000000 0.000000 0.000000 0.000000
2.148795 0.007317 0.000000 0.000000 0.000000 0.000000
2.253614 0.007317 0.000000 0.000000 0.000000 0.000000
2.358434 0.007317 0.000000 0.000000 0.000000 0.000000
2.463253 0.007317 0.000000 0.000000 0.000000 0.000000
2.568072 0.007317 0.000000 0.000000 0.000000 0.000000
2.672892 0.007317 0.000000 0.000000 0.000000 0.000000
2.777711 0.007317 0.000000 0.000000 0.000000 0.000000
2.882530 0.007317 0.000000 0.000000 0.000000 0.000000
2.987349 0.007317 0.000000 0.000000 0.000000 0.000000
3.092169 0.007317 0.000000 0.000000 0.000000 0.000000
3.196988 0.007317 0.000000 0.000000 0.000000 0.000000
3.301807 0.007317 0.000000 0.000000 0.000000 0.000000
3.406627 0.007317 0.000000 0.000000 0.000000 0.000000
3.511446 0.007317 0.000000 0.000000 0.000000 0.000000
3.616265 0.007317 0.000000 0.000000 0.000000 0.000000
3.721084 0.007317 0.000000 0.000000 0.000000 0.000000
3.825904 0.007317 0.000000 0.000000 0.000000 0.000000
3.930723 0.007317 0.000000 0.000000 0.000000 0.000000
4.035542 0.007317 0.000000 0.000000 0.000000 0.000000
4.140361 0.007317 0.000000 0.000000 0.000000 0.000000
4.245181 0.007317 0.000000 0.000000 0.000000 0.000000
4.350000 0.007317 0.000000 0.000000 0.000000 0.000000
4.454819 0.007317 0.000000 0.000000 0.000000 0.000000
4.559639 0.007317 0.000000 0.000000 0.000000 0.000000
4.664458 0.007317 0.000000 0.000000 0.000000 0.000000
4.769277 0.007317 0.000000 0.000000 0.000000 0.000000
4.874096 0.007317 0.000000 0.000000 0.000000 0.000000
4.978916 0.007317 0.000000 0.000000 0.000000 0.000000
5.083735 0.007317 0.000000 0.000000 0.000000 0.000000
5.188554 0.007317 0.000000 0.000000 0.000000 0.000000
5.293373 0.007317 0.000000 0.000000 0.000000 0.000000
5.398193 0.007317 0.000000 0.000000 0.000000 0.000000
5.503012 0.007317 0.000000 0.000000 0.000000 0.000000
5.607831 0.007317 0.000000 0.000000 0.000000 0.000000
5.712651 0.007317 0.000000 0.000000 0.000000 0.000000
5.817470 0.007317 0.000000 0.000000 0.000000 0.000000
5.922289 0.007317 0.000000 0.000000 0.000000 0.000000
6.027108 0.007317 0.000000 0.000000 0.000000 0.000000
6.131928 0.007317 0.000000 0.000000 0.000000 0.000000
6.236747 0.007317 0.000000 0.000000 0.000000 0.000000
6.341566 0.007317 0.000000 0.000000 0.000000 0.000000
6.446386 0.007317 0.000000 0.000000 0.000000 0.000000
6.551205 0.007317 0.000000 0.000000 0.000000 0.000000
6.656024 0.007317 0.000000 0.000000 0.000000 0.000000
6.760843 0.007317 0.000000 0.000000 0.000000 0.000000
6.865663 0.007317 0.000000 0.000000 0.000000 0.000000
6.970482 0.007317 0.000000 0.000000 0.000000 0.000000
7.075301 0.007317 0.000000 0.000000 0.000000 0.000000
7.180120 0.007317 0.000000 0.000000 0.000000 0.000000
7.284940 0.007317 0.000000 0.000000 0.000000 0.000000
7.389759 0.007317 0.000000 0.000000 0.000000 0.000000
7.494578 0.007317 0.000000 0.000000 0.000000 0.000000
7.599398 0.007317 0.000000 0.000000 0.000000 0.000000
7.704217 0.007317 0.000000 0.000000 0.000000 0.000000
7.809036 0.007317 0.000000 0.000000 0.000000 0.000000
7.913855 0.007317 0.000000 0.000000 0.000000 0.000000
8.018675 0.007317 0.000000 0.000000 0.000000 0.000000
8.123494 0.007317 0.000000 0.000000 0.000000 0.000000
8.228313 0.007317 0.000000 0.000000 0.000000 0.000000
8.333133 0.007317 0.000000 0.000000 0.000000 0.000000
8.437952 0.007317 0.000000 0.000000 0.000000 0.000000
8.542771 0.007317 0.000000 0.000000 0.000000 0.000000
8.647590 0.007317 0.000000 0.000000 0.000000 0.000000
0.052410 0.021951 0.000000 0.000000 0.000000 0.000000
0.157229 0.021951 -0.000170 0.000213 0.900000 0.000273
0.262048 0.021951 -0.000076 0.000122 0.900000 0.000144
0.366867 0.021951 0.000802 0.000037 0.900000 0.000803
0.471687 0.021951 0.001919 0.000034 0.900000 0.001919
0.576506 0.021951 0.006397 -0.000425 0.900000 0.006411
0.681325 0.021951 0.015006 -0.000593 0.900000 0.015018
0.786145 0.021951 0.019160 -0.000100 0.900000 0.019161
0.890964 0.021951 0.018622 -0.000171 0.900000 0.018623
0.995783 0.021951 0.019918 -0.000397 0.900000 0.019922
1.100602 0.021951 0.021497 -0.000027 0.900000 0.021497
1.205422 0.021951 0.020457 -0.000115 0.900000 0.020457
1.310241 0.021951 0.020059 -0.000472 0.900000 0.020064
1.415060 0.021951 0.021902 -0.000487 0.900000 0.021907
1.519880 0.021951 0.022945 -0.000314 0.900000 0.022948
1.624699 0.021951 0.021061 0.000138 0.900000 0.021062
1.729518 0.021951 0.019075 -0.000280 0.900000 0.019077
1.834337 0.021951 0.018969 -0.000554 0.900000 0.018977
1.939157 0.021951 0.019301 -0.000489 0.900000 0.019307
2.043976 0.021951 0.019613 -0.000380 0.900000 0.019616
2.148795 0.021951 0.019675 -0.000596 0.900000 0.019685
2.253614 0.021951 0.021852 -0.000832 0.900000 0.021868
2.358434 0.021951 0.019585 0.000269 0.900000 0.019586
2.463253 0.021951 0.016817 -0.000626 0.900000 0.016828
2.568072 0.021951 0.020818 -0.000560 0.900000 0.020825
2.672892 0.021951 0.025720 -0.000580 0.900000 0.025727
2.777711 0.021951 0.024466 0.000565 0.900000 0.024472
2.882530 0.021951 0.020729 -0.000622 0.900000 0.020738
2.987349 0.021951 0.020459 -0.000566 0.900000 0.020467
3.092169 0.021951 0.021844 -0.000575 0.900000 0.021852
3.196988 0.021951 0.020444 0.000529 0.900000 0.020451
3.301807 0.021951 0.021046 -0.000641 0.900000 0.021056
3.406627 0.021951 0.027946 -0.000661 0.900000 0.027954
3.511446 0.021951 0.033005 -0.000746 0.900000 0.033014
3.616265 0.021951 0.029965 0.000489 0.900000 0.029969
3.721084 0.021951 0.027765 -0.000651 0.900000 0.027773
3.825904 0.021951 0.031856 -0.000507 0.900000 0.031860
3.930723 0.021951 0.033259 -0.000512 0.900000 0.033263
4.035542 0.021951 0.025878 -0.000040 0.900000 0.025878
4.140361 0.021951 0.019472 -0.000733 0.900000 0.019486
4.245181 0.021951 0.021193 -0.000502 0.900000 0.021199
4.350000 0.021951 0.022992 -0.000478 0.900000 0.022997
4.454819 0.021951 0.022080 0.000324 0.900000 0.022082
4.559639 0.021951 0.022237 -0.000543 0.900000 0.022244
4.664458 0.021951 0.024181 -0.000273 0.900000 0.024183
4.769277 0.021951 0.021849 -0.000413 0.900000 0.021853
4.874096 0.021951 0.018152 0.000118 0.900000 0.018152
4.978916 0.021951 0.017709 -0.000607 0.900000 0.017720
5.083735 0.021951 0.016340 -0.000347 0.900000 0.016344
5.188554 0.021951 0.008816 -0.000366 0.900000 0.008823
5.293373 0.021951 0.002515 -0.000434 0.900000 0.002552
5.398193 0.021951 0.002344 0.000466 0.900000 0.002390
5.503012 0.021951 0.004700 -0.000309 0.900000 0.004710
5.607831 0.021951 0.006632 -0.000489 0.900000 0.006650
5.712651 0.021951 0.006983 -0.000341 0.900000 0.006991
5.817470 0.021951 0.008287 -0.000494 0.900000 0.008302
5.922289 0.021951 0.007809 -0.000121 0.900000 0.007810
6.027108 0.021951 0.002832 -0.000292 0.900000 0.002847
6.131928 0.021951 -0.000244 -0.000146 0.900000 0.000284
6.236747 0.021951 0.001484 -0.000263 0.900000 0.001507
6.341566 0.021951 0.004075 -0.000102 0.900000 0.004076
6.446386 0.021951 0.006923 -0.000208 0.900000 0.006926
6.551205 0.021951 0.005958 0.000755 0.900000 0.006006
6.656024 0.021951 0.004558 -0.000049 0.900000 0.004558
6.760843 0.021951 0.006485 -0.000044 0.900000 0.006486
6.865663 0.021951 0.004416 0.000240 0.900000 0.004423
6.970482 0.021951 0.003961 -0.000569 0.900000 0.004002
7.075301 0.021951 0.005847 -0.000296 0.900000 0.005854
7.180120 0.021951 0.005368 -0.000206 0.900000 0.005372
7.284940 0.021951 0.004029 0.000074 0.900000 0.004030
7.389759 0.021951 0.003840 -0.000238 0.900000 0.003848
7.494578 0.021951 0.004094 -0.000167 0.900000 0.004098
7.599398 0.021951 0.003031 -0.000102 0.900000 0.003032
7.704217 0.021951 0.002206 -0.000203 0.900000 0.002215
7.809036 0.021951 0.001124 0.000031 0.900000 0.001124
7.913855 0.021951 0.001933 -0.000280 0.900000 0.001953
8.018675 0.021951 0.002582 0.000203 0.900000 0.002590
8.123494 0.021951 -0.000525 0.000232 0.900000 0.000574
8.228313 0.021951 -0.002369 -0.000045 0.900000 0.002370
8.333133 0.021951 -0.000972 -0.000069 0.900000 0.000975
8.437952 0.021951 0.000283 0.000145 0.900000 0.000318
8.542771 0.021951 0.000178 0.000148 0.900000 0.000232
8.647590 0.021951 0.000000 0.000000 0.000000 0.000000
0.052410 0.036585 0.000000 0.000000 0.000000 0.000000
0.157229 0.036585 -0.000124 0.000633 0.900000 0.000645
0.262048 0.036585 0.000068 0.000362 0.900000 0.000368
0.366867 0.036585 0.001048 0.000106 0.900000 0.001053
0.471687 0.036585 0.002484 0.000077 0.900000 0.002485
0.576506 0.036585 0.006143 -0.001091 0.900000 0.006239
0.681325 0.036585 0.010748 -0.001140 0.900000 0.010809
0.786145 0.036585 0.012265 -0.000157 0.900000 0.012266
0.890964 0.036585 0.011294 -0.000270 0.900000 0.011297
0.995783 0.036585 0.010001 -0.000753 0.900000 0.010029
1.100602 0.036585 0.011228 -0.000093 0.900000 0.011228
1.205422 0.036585 0.012492 -0.000458 0.900000 0.012501
1.310241 0.036585 0.010949 -0.000906 0.900000 0.010986
1.415060 0.036585 0.009390 -0.001057 0.900000 0.009449
1.519880 0.036585 0.007219 -0.000556 0.900000 0.007241
1.624699 0.036585 0.004415 0.000510 0.900000 0.004445
1.729518 0.036585 0.005007 -0.000909 0.900000 0.005089
1.834337 0.036585 0.004946 -0.001217 0.900000 0.005093
1.939157 0.036585 0.001295 -0.000916 0.900000 0.001586
2.043976 0.036585 -0.000066 -0.001022 0.900000 0.001024
2.148795 0.036585 -0.001958 -0.001207 0.900000 0.002301
2.253614 0.036585 -0.006445 -0.001633 0.900000 0.006648
2.358434 0.036585 -0.008069 0.000405 0.900000 0.008079
2.463253 0.036585 -0.007993 -0.001275 0.900000 0.008094
2.568072 0.036585 -0.009147 -0.001001 0.900000 0.009201
2.672892 0.036585 -0.010051 -0.001368 0.900000 0.010144
2.777711 0.036585 -0.008469 0.000925 0.900000 0.008519
2.882530 0.036585 -0.009594 -0.001292 0.900000 0.009681
2.987349 0.036585 -0.015805 -0.001017 0.900000 0.015837
3.092169 0.036585 -0.018935 -0.001253 0.900000 0.018976
3.196988 0.036585 -0.015847 0.000901 0.900000 0.015873
3.301807 0.036585 -0.012040 -0.001294 0.900000 0.012110
3.406627 0.036585 -0.012030 -0.001144 0.900000 0.012084
3.511446 0.036585 -0.013922 -0.001623 0.900000 0.014017
3.616265 0.036585 -0.013376 0.000824 0.900000 0.013401
3.721084 0.036585 -0.011634 -0.001381 0.900000 0.011716
3.825904 0.036585 -0.013373 -0.000815 0.900000 0.013397
3.930723 0.036585 -0.017525 -0.001102 0.900000 0.017560
4.035542 0.036585 -0.025301 -0.000034 0.900000 0.025301
4.140361 0.036585 -0.031062 -0.001632 0.900000 0.031105
4.245181 0.036585 -0.033882 -0.000823 0.900000 0.033892
4.350000 0.036585 -0.036673 -0.001103 0.900000 0.036689
4.454819 0.036585 -0.033264 0.000561 0.900000 0.033269
4.559639 0.036585 -0.028357 -0.001263 0.900000 0.028385
4.664458 0.036585 -0.027973 -0.000442 0.900000 0.027977
4.769277 0.036585 -0.031256 -0.001132 0.900000 0.031277
4.874096 0.036585 -0.031385 0.000149 0.900000 0.031385
4.978916 0.036585 -0.029238 -0.001475 0.900000 0.029275
5.083735 0.036585 -0.032795 -0.000721 0.900000 0.032803
5.188554 0.036585 -0.040290 -0.001041 0.900000 0.040303
5.293373 0.036585 -0.043611 -0.000767 0.900000 0.043617
5.398193 0.036585 -0.031022 0.000580 0.900000 0.031027
5.503012 0.036585 -0.018693 -0.000594 0.900000 0.018702
5.607831 0.036585 -0.018579 -0.001058 0.900000 0.018609
5.712651 0.036585 -0.019648 -0.000709 0.900000 0.019661
5.817470 0.036585 -0.020250 -0.001125 0.900000 0.020281
5.922289 0.036585 -0.022368 -0.000282 0.900000 0.022369
6.027108 0.036585 -0.027773 -0.000642 0.900000 0.027781
6.131928 0.036585 -0.030539 -0.000237 0.900000 0.030540
6.236747 0.036585 -0.028538 -0.000499 0.900000 0.028542
6.341566 0.036585 -0.025968 -0.000193 0.900000 0.025969
6.446386 0.036585 -0.022544 -0.000491 0.900000 0.022549
6.551205 0.036585 -0.015616 0.001435 0.900000 0.015682
6.656024 0.036585 -0.008722 -0.000205 0.900000 0.008725
6.760843 0.036585 -0.006216 -0.000001 0.900000 0.006216
6.865663 0.036585 -0.008769 0.000871 0.900000 0.008812
6.970482 0.036585 -0.009979 -0.001505 0.900000 0.010092
7.075301 0.036585 -0.008681 -0.000670 0.900000 0.008706
7.180120 0.036585 -0.009694 -0.000316 0.900000 0.009699
7.284940 0.036585 -0.007814 -0.000046 0.900000 0.007814
7.389759 0.036585 -0.004848 -0.000405 0.900000 0.004865
7.494578 0.036585 -0.005366 -0.000335 0.900000 0.005376
7.599398 0.036585 -0.007036 -0.000108 0.900000 0.007037
7.704217 0.036585 -0.008701 -0.000403 0.900000 0.008711
7.809036 0.036585 -0.008643 0.000022 0.900000 0.008643
7.913855 0.036585 -0.008314 -0.000455 0.900000 0.008326
8.018675 0.036585 -0.007165 0.000360 0.900000 0.007175
8.123494 0.036585 -0.003761 0.000193 0.900000 0.003766
8.228313 0.036585 -0.001847 -0.000086 0.900000 0.001849
8.333133 0.036585 -0.000775 -0.000180 0.900000 0.000796
8.437952 0.036585 0.000438 0.000423 0.900000 0.000609
8.542771 0.036585 0.000300 0.000461 0.900000 0.000550
8.647590 0.036585 0.000000 0.000000 0.000000 0.000000
0.052410 0.051220 0.000000 0.000000 0.000000 0.000000
0.157229 0.051220 -0.000087 0.001041 0.900000 0.001045
0.262048 0.051220 0.000196 0.000590 0.900000 0.000622
0.366867 0.051220 0.001295 0.000166 0.900000 0.001305
0.471687 0.051220 0.002984 0.000078 0.900000 0.002985
0.576506 0.051220 0.006424 -0.001495 0.900000 0.006596
0.681325 0.051220 0.010270 -0.001074 0.900000 0.010326
0.786145 0.051220 0.011731 -0.000128 0.900000 0.011731
0.890964 0.051220 0.011124 -0.000167 0.900000 0.011125
0.995783 0.051220 0.010031 -0.000692 0.900000 0.010055
1.100602 0.051220 0.011357 -0.000187 0.900000 0.011358
1.205422 0.051220 0.012491 -0.000958 0.900000 0.012528
1.310241 0.051220 0.010974 -0.000859 0.900000 0.011008
1.415060 0.051220 0.009518 -0.001248 0.900000 0.009600
1.519880 0.051220 0.007456 -0.000447 0.900000 0.007470
1.624699 0.051220 0.004416 0.001048 0.900000 0.004539
1.729518 0.051220 0.004906 -0.001673 0.900000 0.005184
1.834337 0.051220 0.005152 -0.001447 0.900000 0.005351
1.939157 0.051220 0.001569 -0.000815 0.900000 0.001768
2.043976 0.051220 0.000167 -0.001513 0.900000 0.001522
2.148795 0.051220 -0.001626 -0.001312 0.900000 0.002090
2.253614 0.051220 -0.005945 -0.001564 0.900000 0.006147
2.358434 0.051220 -0.007783 0.000132 0.900000 0.007784
2.463253 0.051220 -0.007838 -0.001327 0.900000 0.007950
2.568072 0.051220 -0.008604 -0.000841 0.900000 0.008645
2.672892 0.051220 -0.009480 -0.001690 0.900000 0.009630
2.777711 0.051220 -0.008313 0.000535 0.900000 0.008330
2.882530 0.051220 -0.009367 -0.001411 0.900000 0.009473
2.987349 0.051220 -0.015164 -0.000834 0.900000 0.015187
3.092169 0.051220 -0.018326 -0.001383 0.900000 0.018378
3.196988 0.051220 -0.015665 0.000606 0.900000 0.015677
3.301807 0.051220 -0.011758 -0.001309 0.900000 0.011830
3.406627 0.051220 -0.011200 -0.000827 0.900000 0.011230
3.511446 0.051220 -0.013015 -0.001804 0.900000 0.013140
3.616265 0.051220 -0.012967 0.000541 0.900000 0.012978
3.721084 0.051220 -0.011212 -0.001479 0.900000 0.011309
3.825904 0.051220 -0.012538 -0.000460 0.900000 0.012547
3.930723 0.051220 -0.016646 -0.001182 0.900000 0.016688
4.035542 0.051220 -0.024320 -0.000012 0.900000 0.024320
4.140361 0.051220 -0.029671 -0.001935 0.900000 0.029734
4.245181 0.051220 -0.032360 -0.000489 0.900000 0.032364
4.350000 0.051220 -0.035672 -0.001263 0.900000 0.035695
4.454819 0.051220 -0.032663 0.000339 0.900000 0.032665
4.559639 0.051220 -0.027631 -0.001554 0.900000 0.027675
4.664458 0.051220 -0.027038 -0.000278 0.900000 0.027039
4.769277 0.051220 -0.030332 -0.001562 0.900000 0.030372
4.874096 0.051220 -0.030625 -0.000069 0.900000 0.030625
4.978916 0.051220 -0.028355 -0.001916 0.900000 0.028420
5.083735 0.051220 -0.031775 -0.000803 0.900000 0.031785
5.188554 0.051220 -0.039365 -0.001571 0.900000 0.039397
5.293373 0.051220 -0.042756 -0.000597 0.900000 0.042760
5.398193 0.051220 -0.030411 -0.000069 0.900000 0.030411
5.503012 0.051220 -0.018204 -0.000591 0.900000 0.018213
5.607831 0.051220 -0.018122 -0.001184 0.900000 0.018161
5.712651 0.051220 -0.019188 -0.000792 0.900000 0.019204
5.817470 0.051220 -0.019757 -0.001361 0.900000 0.019804
5.922289 0.051220 -0.021989 -0.000363 0.900000 0.021992
6.027108 0.051220 -0.027443 -0.000736 0.900000 0.027453
6.131928 0.051220 -0.030142 -0.000161 0.900000 0.030142
6.236747 0.051220 -0.028097 -0.000413 0.900000 0.028100
6.341566 0.051220 -0.025515 -0.000192 0.900000 0.025516
6.446386 0.051220 -0.022135 -0.000599 0.900000 0.022143
6.551205 0.051220 -0.015587 0.001327 0.900000 0.015643
6.656024 0.051220 -0.008496 -0.000469 0.900000 0.008509
6.760843 0.051220 -0.005771 0.000192 0.900000 0.005774
6.865663 0.051220 -0.008668 0.001698 0.900000 0.008833
6.970482 0.051220 -0.009677 -0.002302 0.900000 0.009947
7.075301 0.051220 -0.008175 -0.000801 0.900000 0.008214
7.180120 0.051220 -0.009378 -0.000130 0.900000 0.009379
7.284940 0.051220 -0.007670 -0.000411 0.900000 0.007681
7.389759 0.051220 -0.004711 -0.000286 0.900000 0.004720
7.494578 0.051220 -0.005206 -0.000315 0.900000 0.005215
7.599398 0.051220 -0.006865 0.000061 0.900000 0.006865
7.704217 0.051220 -0.008466 -0.000383 0.900000 0.008474
7.809036 0.051220 -0.008461 -0.000060 0.900000 0.008462
7.913855 0.051220 -0.007896 -0.000253 0.900000 0.007901
8.018675 0.051220 -0.006525 0.000264 0.900000 0.006531
8.123494 0.051220 -0.003140 -0.000322 0.900000 0.003157
8.228313 0.051220 -0.001347 -0.000036 0.900000 0.001348
8.333133 0.051220 -0.000553 -0.000243 0.900000 0.000604
8.437952 0.051220 0.000639 0.000682 0.900000 0.000935
8.542771 0.051220 0.000430 0.000809 0.900000 0.000916
8.647590 0.051220 0.000000 0.000000 0.000000 0.000000
0.052410 0.065854 0.000000 0.000000 0.000000 0.000000
0.157229 0.065854 -0.000061 0.001440 0.900000 0.001441
0.262048 0.065854 0.000310 0.000807 0.900000 0.000865
0.366867 0.065854 0.001536 0.000215 0.900000 0.001551
0.471687 0.065854 0.003440 0.000059 0.900000 0.003440
0.576506 0.065854 0.006679 -0.001757 0.900000 0.006906
0.681325 0.065854 0.009849 -0.001019 0.900000 0.009901
0.786145 0.065854 0.011233 -0.000195 0.900000 0.011235
0.890964 0.065854 0.010927 -0.000117 0.900000 0.010928
0.995783 0.065854 0.010024 -0.000667 0.900000 0.010047
1.100602 0.065854 0.011385 -0.000282 0.900000 0.011388
1.205422 0.065854 0.012427 -0.001552 0.900000 0.012523
1.310241 0.065854 0.010936 -0.000848 0.900000 0.010969
1.415060 0.065854 0.009547 -0.001476 0.900000 0.009661
1.519880 0.065854 0.007695 -0.000389 0.900000 0.007705
1.624699 0.065854 0.004341 0.001743 0.900000 0.004678
1.729518 0.065854 0.004676 -0.002551 0.900000 0.005327
1.834337 0.065854 0.005282 -0.001687 0.900000 0.005545
1.939157 0.065854 0.001670 -0.000713 0.900000 0.001816
2.043976 0.065854 0.000193 -0.001950 0.900000 0.001960
2.148795 0.065854 -0.001528 -0.001491 0.900000 0.002134
2.253614 0.065854 -0.005680 -0.001490 0.900000 0.005872
2.358434 0.065854 -0.007615 -0.000107 0.900000 0.007616
2.463253 0.065854 -0.007818 -0.001371 0.900000 0.007937
2.568072 0.065854 -0.008398 -0.000768 0.900000 0.008433
2.672892 0.065854 -0.009104 -0.001881 0.900000 0.009296
2.777711 0.065854 -0.008117 0.000205 0.900000 0.008119
2.882530 0.065854 -0.009284 -0.001538 0.900000 0.009411
2.987349 0.065854 -0.014914 -0.000708 0.900000 0.014931
3.092169 0.065854 -0.017935 -0.001394 0.900000 0.017989
3.196988 0.065854 -0.015452 0.000377 0.900000 0.015457
3.301807 0.065854 -0.011645 -0.001287 0.900000 0.011716
3.406627 0.065854 -0.010914 -0.000544 0.900000 0.010928
3.511446 0.065854 -0.012548 -0.001865 0.900000 0.012686
3.616265 0.065854 -0.012655 0.000329 0.900000 0.012659
3.721084 0.065854 -0.011003 -0.001462 0.900000 0.011100
3.825904 0.065854 -0.012138 -0.000137 0.900000 0.012139
3.930723 0.065854 -0.016110 -0.001141 0.900000 0.016151
4.035542 0.065854 -0.023758 -0.000031 0.900000 0.023758
4.140361 0.065854 -0.028872 -0.002199 0.900000 0.028955
4.245181 0.065854 -0.031420 -0.000151 0.900000 0.031420
4.350000 0.065854 -0.035005 -0.001214 0.900000 0.035026
4.454819 0.065854 -0.032197 0.000118 0.900000 0.032197
4.559639 0.065854 -0.027176 -0.001726 0.900000 0.027231
4.664458 0.065854 -0.026493 -0.000135 0.900000 0.026493
4.769277 0.065854 -0.029737 -0.001683 0.900000 0.029785
4.874096 0.065854 -0.030154 -0.000290 0.900000 0.030155
4.978916 0.065854 -0.027923 -0.002221 0.900000 0.028012
5.083735 0.065854 -0.031288 -0.000878 0.900000 0.031300
5.188554 0.065854 -0.038888 -0.001946 0.900000 0.038937
5.293373 0.065854 -0.042163 -0.000452 0.900000 0.042166
5.398193 0.065854 -0.030018 -0.000620 0.900000 0.030024
5.503012 0.065854 -0.017973 -0.000614 0.900000 0.017983
5.607831 0.065854 -0.017890 -0.001232 0.900000 0.017933
5.712651 0.065854 -0.019013 -0.000881 0.900000 0.019033
5.817470 0.065854 -0.019548 -0.001530 0.900000 0.019608
5.922289 0.065854 -0.021754 -0.000430 0.900000 0.021758
6.027108 0.065854 -0.027188 -0.000783 0.900000 0.027199
6.131928 0.065854 -0.029801 -0.000111 0.900000 0.029802
6.236747 0.065854 -0.027725 -0.000255 0.900000 0.027726
6.341566 0.065854 -0.025142 -0.000204 0.900000 0.025143
6.446386 0.065854 -0.021658 -0.000639 0.900000 0.021668
6.551205 0.065854 -0.015375 0.001334 0.900000 0.015433
6.656024 0.065854 -0.008239 -0.000810 0.900000 0.008279
6.760843 0.065854 -0.005223 0.000422 0.900000 0.005240
6.865663 0.065854 -0.008547 0.002665 0.900000 0.008952
6.970482 0.065854 -0.009528 -0.003221 0.900000 0.010058
7.075301 0.065854 -0.007725 -0.000898 0.900000 0.007777
7.180120 0.065854 -0.009108 0.000084 0.900000 0.009109
7.284940 0.065854 -0.007546 -0.000736 0.900000 0.007582
7.389759 0.065854 -0.004575 -0.000191 0.900000 0.004579
7.494578 0.065854 -0.005046 -0.000263 0.900000 0.005053
7.599398 0.065854 -0.006692 0.000212 0.900000 0.006696
7.704217 0.065854 -0.008239 -0.000339 0.900000 0.008246
7.809036 0.065854 -0.008271 -0.000132 0.900000 0.008272
7.913855 0.065854 -0.007561 -0.000059 0.900000 0.007561
8.018675 0.065854 -0.006008 0.000158 0.900000 0.006010
8.123494 0.065854 -0.002558 -0.000791 0.900000 0.002677
8.228313 0.065854 -0.000842 0.000107 0.900000 0.000848
8.333133 0.065854 -0.000295 -0.000265 0.900000 0.000396
8.437952 0.065854 0.000885 0.000929 0.900000 0.001283
8.542771 0.065854 0.000575 0.001195 0.900000 0.001326
8.647590 0.065854 0.000000 0.000000 0.000000 0.000000
0.052410 0.080488 0.000000 0.000000 0.000000 0.000000
0.157229 0.080488 -0.000058 0.001834 0.900000 0.001835
0.262048 0.080488 0.000389 0.001009 0.900000 0.001081
0.366867 0.080488 0.001727 0.000260 0.900000 0.001746
0.471687 0.080488 0.003811 0.000027 0.900000 0.003811
0.576506 0.080488 0.006672 -0.001849 0.900000 0.006924
0.681325 0.080488 0.009293 -0.000963 0.900000 0.009343
0.786145 0.080488 0.010472 -0.000262 0.900000 0.010476
0.890964 0.080488 0.010386 -0.000125 0.900000 0.010387
0.995783 0.080488 0.009645 -0.000641 0.900000 0.009667
1.100602 0.080488 0.011024 -0.000397 0.900000 0.011031
1.205422 0.080488 0.011877 -0.001945 0.900000 0.012035
1.310241 0.080488 0.010426 -0.000893 0.900000 0.010464
1.415060 0.080488 0.009120 -0.001592 0.900000 0.009258
1.519880 0.080488 0.007393 -0.000407 0.900000 0.007404
1.624699 0.080488 0.007279 0.002185 0.900000 0.007600
1.729518 0.080488 0.007794 -0.003129 0.900000 0.008399
1.834337 0.080488 0.005076 -0.001799 0.900000 0.005385
1.939157 0.080488 0.001195 -0.000643 0.900000 0.001357
2.043976 0.080488 -0.000379 -0.002271 0.900000 0.002302
2.148795 0.080488 -0.001997 -0.001736 0.900000 0.002646
2.253614 0.080488 -0.006111 -0.001294 0.900000 0.006246
2.358434 0.080488 -0.008165 -0.000348 0.900000 0.008172
2.463253 0.080488 -0.008504 -0.001291 0.900000 0.008601
2.568072 0.080488 -0.008958 -0.000796 0.900000 0.008993
2.672892 0.080488 -0.009680 -0.001933 0.900000 0.009871
2.777711 0.080488 -0.008844 -0.000161 0.900000 0.008846
2.882530 0.080488 -0.010170 -0.001522 0.900000 0.010283
2.987349 0.080488 -0.015639 -0.000726 0.900000 0.015656
3.092169 0.080488 -0.018625 -0.001332 0.900000 0.018672
3.196988 0.080488 -0.016299 0.000104 0.900000 0.016299
3.301807 0.080488 -0.012520 -0.001116 0.900000 0.012569
3.406627 0.080488 -0.011708 -0.000376 0.900000 0.011714
3.511446 0.080488 -0.013422 -0.001764 0.900000 0.013537
3.616265 0.080488 -0.013670 0.000060 0.900000 0.013671
3.721084 0.080488 -0.012056 -0.001265 0.900000 0.012122
3.825904 0.080488 -0.013056 0.000062 0.900000 0.013056
3.930723 0.080488 -0.016933 -0.000958 0.900000 0.016960
4.035542 0.080488 -0.024651 -0.000142 0.900000 0.024651
4.140361 0.080488 -0.030385 -0.002259 0.900000 0.030469
4.245181 0.080488 -0.032796 0.000001 0.900000 0.032796
4.350000 0.080488 -0.035808 -0.001033 0.900000 0.035823
4.454819 0.080488 -0.033130 -0.000155 0.900000 0.033131
4.559639 0.080488 -0.028127 -0.001697 0.900000 0.028178
4.664458 0.080488 -0.027286 -0.000109 0.900000 0.027286
4.769277 0.080488 -0.030425 -0.001602 0.900000 0.030467
4.874096 0.080488 -0.030928 -0.000585 0.900000 0.030933
4.978916 0.080488 -0.028867 -0.002320 0.900000 0.028960
5.083735 0.080488 -0.032224 -0.001054 0.900000 0.032241
5.188554 0.080488 -0.039944 -0.002118 0.900000 0.040000
5.293373 0.080488 -0.043150 -0.000455 0.900000 0.043152
5.398193 0.080488 -0.030666 -0.001016 0.900000 0.030682
5.503012 0.080488 -0.018767 -0.000691 0.900000 0.018779
5.607831 0.080488 -0.018506 -0.001170 0.900000 0.018543
5.712651 0.080488 -0.019684 -0.001012 0.900000 0.019710
5.817470 0.080488 -0.020091 -0.001559 0.900000 0.020151
5.922289 0.080488 -0.022223 -0.000544 0.900000 0.022230
6.027108 0.080488 -0.027643 -0.000757 0.900000 0.027654
6.131928 0.080488 -0.030192 -0.000131 0.900000 0.030192
6.236747 0.080488 -0.028168 -0.000111 0.900000 0.028168
6.341566 0.080488 -0.025569 -0.000276 0.900000 0.025571
6.446386 0.080488 -0.021944 -0.000594 0.900000 0.021952
6.551205 0.080488 -0.016007 0.001421 0.900000 0.016070
6.656024 0.080488 -0.009139 -0.001131 0.900000 0.009209
6.760843 0.080488 -0.005505 0.000526 0.900000 0.005530
6.865663 0.080488 -0.004355 0.003253 0.900000 0.005436
6.970482 0.080488 -0.005529 -0.003709 0.900000 0.006658
7.075301 0.080488 -0.007915 -0.000901 0.900000 0.007966
7.180120 0.080488 -0.009482 0.000301 0.900000 0.009487
7.284940 0.080488 -0.007885 -0.000990 0.900000 0.007946
7.389759 0.080488 -0.004880 -0.000143 0.900000 0.004882
7.494578 0.080488 -0.005256 -0.000156 0.900000 0.005258
7.599398 0.080488 -0.006879 0.000324 0.900000 0.006887
7.704217 0.080488 -0.008322 -0.000266 0.900000 0.008326
7.809036 0.080488 -0.008350 -0.000212 0.900000 0.008352
7.913855 0.080488 -0.007334 0.000106 0.900000 0.007335
8.018675 0.080488 -0.005687 0.000039 0.900000 0.005687
8.123494 0.080488 -0.002830 -0.001144 0.900000 0.003053
8.228313 0.080488 -0.001087 0.000240 0.900000 0.001114
8.333133 0.080488 -0.000019 -0.000249 0.900000 0.000250
8.437952 0.080488 0.001149 0.001168 0.900000 0.001639
8.542771 0.080488 0.000734 0.001627 0.900000 0.001785
8.647590 0.080488 0.000000 0.000000 0.000000 0.000000
0.052410 0.095122 0.000000 0.000000 0.000000 0.000000
0.157229 0.095122 -0.000087 0.002233 0.900000 0.002235
0.262048 0.095122 0.000396 0.001194 0.900000 0.001258
0.366867 0.095122 0.001820 0.000309 0.900000 0.001846
0.471687 0.095122 0.003989 -0.000012 0.900000 0.003989
0.576506 0.095122 0.006607 -0.001759 0.900000 0.006837
0.681325 0.095122 0.008932 -0.000946 0.900000 0.008982
0.786145 0.095122 0.009887 -0.000237 0.900000 0.009890
0.890964 0.095122 0.009929 -0.000223 0.900000 0.009932
0.995783 0.095122 0.009309 -0.000581 0.900000 0.009327
1.100602 0.095122 0.010695 -0.000594 0.900000 0.010712
1.205422 0.095122 0.011407 -0.001835 0.900000 0.011553
1.310241 0.095122 0.009982 -0.001032 0.900000 0.010035
1.415060 0.095122 0.008723 -0.001461 0.900000 0.008844
1.519880 0.095122 0.007103 -0.000535 0.900000 0.007123
1.624699 0.095122 0.010228 0.001927 0.900000 0.010408
1.729518 0.095122 0.010982 -0.003017 0.900000 0.011389
1.834337 0.095122 0.004958 -0.001665 0.900000 0.005230
1.939157 0.095122 0.000754 -0.000672 0.900000 0.001010
2.043976 0.095122 -0.000920 -0.002427 0.900000 0.002596
2.148795 0.095122 -0.002371 -0.002146 0.900000 0.003198
2.253614 0.095122 -0.006514 -0.000849 0.900000 0.006569
2.358434 0.095122 -0.008746 -0.000688 0.900000 0.008774
2.463253 0.095122 -0.009152 -0.001004 0.900000 0.009207
2.568072 0.095122 -0.009509 -0.001008 0.900000 0.009562
2.672892 0.095122 -0.010299 -0.001806 0.900000 0.010456
2.777711 0.095122 -0.009586 -0.000685 0.900000 0.009610
2.882530 0.095122 -0.011037 -0.001260 0.900000 0.011109
2.987349 0.095122 -0.016371 -0.001008 0.900000 0.016402
3.092169 0.095122 -0.019359 -0.001216 0.900000 0.019398
3.196988 0.095122 -0.017125 -0.000364 0.900000 0.017129
3.301807 0.095122 -0.013330 -0.000725 0.900000 0.013350
3.406627 0.095122 -0.012479 -0.000449 0.900000 0.012488
3.511446 0.095122 -0.014332 -0.001441 0.900000 0.014405
3.616265 0.095122 -0.014683 -0.000421 0.900000 0.014689
3.721084 0.095122 -0.013079 -0.000844 0.900000 0.013106
3.825904 0.095122 -0.013942 -0.000022 0.900000 0.013942
3.930723 0.095122 -0.017686 -0.000601 0.900000 0.017697
4.035542 0.095122 -0.025459 -0.000499 0.900000 0.025464
4.140361 0.095122 -0.031836 -0.001937 0.900000 0.031895
4.245181 0.095122 -0.034119 -0.000307 0.900000 0.034120
4.350000 0.095122 -0.036517 -0.000728 0.900000 0.036524
4.454819 0.095122 -0.033981 -0.000636 0.900000 0.033987
4.559639 0.095122 -0.029003 -0.001402 0.900000 0.029037