TITLE="(Vx,Vy)"
VARIABLES=X,Y,Vx,Vy,Vm,V
ZONE T="T-Dummy" I=83, J=41, F=POINT
0.052410 0.007317 0.000000 0.000000 0.000000 0.000000
0.157229 0.007317 0.000000 0.000000 0.000000 0.000000
0.262048 0.007317 0.000000 0.000000 0.000000 0.000000
0.366867 0.007317 0.000000 0.000000 0.000000 0.000000
0.471687 0.007317 0.000000 0.000000 0.000000 0.000000
0.576506 0.007317 0.000000 0.000000 0.000000 0.000000
0.681325 0.007317 0.000000 0.000000 0.000000 0.000000
0.786145 0.007317 0.000000 0.000000 0.000000 0.000000
0.890964 0.007317 0.000000 0.000000 0.000000 0.000000
0.995783 0.007317 0.000000 0.000000 0.000000 0.000000
1.100602 0.007317 0.000000 0.000000 0.000000 0.000000
1.205422 0.007317 0.000000 0.000000 0.000000 0.000000
1.310241 0.007317 0.000000 0.000000 0.000000 0.000000
1.415060 0.007317 0.000000 0.000000 0.000000 0.000000
1.519880 0.007317 0.000000 0.000000 0.000000 0.000000
1.624699 0.007317 0.000000 0.000000 0.000000 0.000000
1.729518 0.007317 0.000000 0.000000 0.000000 0.000000
1.834337 0.007317 0.000000 0.000000 0.000000 0.000000
1.939157 0.007317 0.000000 0.000000 0.000000 0.000000
2.043976 0.007317 0.000000 0.000000 0.000000 0.000000
2.148795 0.007317 0.000000 0.000000 0.000000 0.000000
2.253614 0.007317 0.000000 0.000000 0.000000 0.000000
2.358434 0.007317 0.000000 0.000000 0.000000 0.000000
2.463253 0.007317 0.000000 0.000000 0.000000 0.000000
2.568072 0.007317 0.000000 0.000000 0.000000 0.000000
2.672892 0.007317 0.000000 0.000000 0.000000 0.000000
2.777711 0.007317 0.000000 0.000000 0.000000 0.000000
2.882530 0.007317 0.000000 0.000000 0.000000 0.000000
2.987349 0.007317 0.000000 0.000000 0.000000 0.000000
3.092169 0.007317 0.000000 0.000000 0.000000 0.000000
3.196988 0.007317 0.000000 0.000000 0.000000 0.000000
3.301807 0.007317 0.000000 0.000000 0.000000 0.000000
3.406627 0.007317 0.000000 0.000000 0.000000 0.000000
3.511446 0.007317 0.000000 0.000000 0.000000 0.000000
3.616265 0.007317 0.000000 0.000000 0.000000 0.000000
3.721084 0.007317 0.000000 0.000000 0.000000 0.000000
3.825904 0.007317 0.000000 0.000000 0.000000 0.000000
3.930723 0.007317 0.000000 0.000000 0.000000 0.000000
4.035542 0.007317 0.000000 0.000000 0.000000 0.000000
4.140361 0.007317 0.000000 0.000000 0.000000 0.000000
4.245181 0.007317 0.000000 0.000000 0.000000 0.000000
4.350000 0.007317 0.000000 0.000000 0.000000 0.000000
4.454819 0.007317 0.000000 0.000000 0.000000 0.000000
4.559639 0.007317 0.000000 0.000000 0.000000 0.000000
4.664458 0.007317 0.000000 0.000000 0.000000 0.000000
4.769277 0.007317 0.000000 0.000000 0.000000 0.000000
4.874096 0.007317 0.000000 0.000000 0.000000 0.000000
4.978916 0.007317 0.000000 0.000000 0.000000 0.000000
5.083735 0.007317 0.000000 0.000000 0.000000 0.000000
5.188554 0.007317 0.000000 0.000000 0.000000 0.000000
5.293373 0.007317 0.000000 0.000000 0.000000 0.000000
5.398193 0.007317 0.000000 0.000000 0.000000 0.000000
5.503012 0.007317 0.000000 0.000000 0.000000 0.000000
5.607831 0.007317 0.000000 0.000000 0.000000 0.000000
5.712651 0.007317 0.000000 0.000000 0.000000 0.000000
5.817470 0.007317 0.000000 0.000000 0.000000 0.000000
5.922289 0.007317 0.000000 0.000000 0.000000 0.000000
6.027108 0.007317 0.000000 0.000000 0.000000 0.000000
6.131928 0.007317 0.000000 0.000000 0.000000 0.000000
6.236747 0.007317 0.000000 0.000000 0.000000 0.000000
6.341566 0.007317 0.000000 0.000000 0.000000 0.000000
6.446386 0.007317 0.000000 0.000000 0.000000 0.000000
6.551205 0.007317 0.000000 0.000000 0.000000 0.000000
6.656024 0.007317 0.000000 0.000000 0.000000 0.000000
6.760843 0.007317 0.000000 0.000000 0.000000 0.000000
6.865663 0.007317 0.000000 0.000000 0.000000 0.000000
6.970482 0.007317 0.000000 0.000000 0.000000 0.000000
7.075301 0.007317 0.000000 0.000000 0.000000 0.000000
7.180120 0.007317 0.000000 0.000000 0.000000 0.000000
7.284940 0.007317 0.000000 0.000000 0.000000 0.000000
7.389759 0.007317 0.000000 0.000000 0.000000 0.000000
7.494578 0.007317 0.000000 0.000000 0.000000 0.000000
7.599398 0.007317 0.000000 0.000000 0.000000 0.000000
7.704217 0.007317 0.000000 0.000000 0.000000 0.000000
7.809036 0.007317 0.000000 0.000000 0.000000 0.000000
7.913855 0.007317 0.000000 0.000000 0.000000 0.000000
8.018675 0.007317 0.000000 0.000000 0.000000 0.000000
8.123494 0.007317 0.000000 0.000000 0.000000 0.000000
8.228313 0.007317 0.000000 0.000000 0.000000 0.000000
8.333133 0.007317 0.000000 0.000000 0.000000 0.000000
8.437952 0.007317 0.000000 0.000000 0.000000 0.000000
8.542771 0.007317 0.000000 0.000000 0.000000 0.000000
8.647590 0.007317 0.000000 0.000000 0.000000 0.000000
0.052410 0.021951 0.000000 0.000000 0.000000 0.000000
0.157229 0.021951 0.004540 -0.000131 0.900000 0.004542
0.262048 0.021951 0.013080 -0.000142 0.900000 0.013081
0.366867 0.021951 0.021119 -0.000239 0.900000 0.021120
0.471687 0.021951 0.028581 -0.000231 0.900000 0.028582
0.576506 0.021951 0.031424 0.000251 0.900000 0.031425
0.681325 0.021951 0.027689 0.000789 0.900000 0.027700
0.786145 0.021951 0.026807 -0.000396 0.900000 0.026810
0.890964 0.021951 0.030554 -0.000198 0.900000 0.030555
0.995783 0.021951 0.031267 -0.000417 0.900000 0.031270
1.100602 0.021951 0.031508 -0.000531 0.900000 0.031513
1.205422 0.021951 0.032001 -0.000429 0.900000 0.032004
1.310241 0.021951 0.032331 -0.000590 0.900000 0.032336
1.415060 0.021951 0.033488 -0.000306 0.900000 0.033490
1.519880 0.021951 0.033707 -0.000322 0.900000 0.033708
1.624699 0.021951 0.029567 -0.000061 0.900000 0.029567
1.729518 0.021951 0.026176 -0.000257 0.900000 0.026177
1.834337 0.021951 0.029347 -0.000009 0.900000 0.029347
1.939157 0.021951 0.034101 -0.000441 0.900000 0.034104
2.043976 0.021951 0.033568 0.000294 0.900000 0.033569
2.148795 0.021951 0.030731 -0.000521 0.900000 0.030735
2.253614 0.021951 0.030695 -0.000372 0.900000 0.030697
2.358434 0.021951 0.028605 -0.000261 0.900000 0.028606
2.463253 0.021951 0.028147 -0.000389 0.900000 0.028150
2.568072 0.021951 0.027434 0.000113 0.900000 0.027434
2.672892 0.021951 0.029368 -0.000587 0.900000 0.029374
2.777711 0.021951 0.030057 -0.000016 0.900000 0.030057
2.882530 0.021951 0.031908 -0.000979 0.900000 0.031923
2.987349 0.021951 0.028766 0.000863 0.900000 0.028779
3.092169 0.021951 0.020666 -0.000773 0.900000 0.020681
3.196988 0.021951 0.020452 -0.000033 0.900000 0.020452
3.301807 0.021951 0.030236 -0.001663 0.900000 0.030282
3.406627 0.021951 0.039959 -0.001301 0.900000 0.039981
3.511446 0.021951 0.048751 -0.002136 0.900000 0.048798
3.616265 0.021951 0.053771 -0.000273 0.900000 0.053772
3.721084 0.021951 0.046138 0.000008 0.900000 0.046138
3.825904 0.021951 0.034163 0.001132 0.900000 0.034182
3.930723 0.021951 0.021595 -0.000235 0.900000 0.021596
4.035542 0.021951 0.022995 -0.000348 0.900000 0.022998
4.140361 0.021951 0.029671 0.000608 0.900000 0.029677
4.245181 0.021951 0.037798 -0.000592 0.900000 0.037803
4.350000 0.021951 0.041282 0.001109 0.900000 0.041297
4.454819 0.021951 0.046725 -0.001741 0.900000 0.046758
4.559639 0.021951 0.052004 -0.000390 0.900000 0.052005
4.664458 0.021951 0.038955 0.001786 0.900000 0.038996
4.769277 0.021951 0.034462 -0.001987 0.900000 0.034519
4.874096 0.021951 0.037572 -0.000135 0.900000 0.037572
4.978916 0.021951 0.019705 0.002261 0.900000 0.019834
5.083735 0.021951 0.013633 -0.001824 0.900000 0.013754
5.188554 0.021951 0.023443 -0.000150 0.900000 0.023444
5.293373 0.021951 0.015144 0.001410 0.900000 0.015209
5.398193 0.021951 0.011002 -0.000371 0.900000 0.011008
5.503012 0.021951 0.016770 -0.000248 0.900000 0.016772
5.607831 0.021951 0.019555 -0.000436 0.900000 0.019559
5.712651 0.021951 0.016779 0.000827 0.900000 0.016799
5.817470 0.021951 0.013521 -0.000361 0.900000 0.013526
5.922289 0.021951 0.015938 0.000056 0.900000 0.015938
6.027108 0.021951 0.017302 0.000209 0.900000 0.017303
6.131928 0.021951 0.016045 0.001027 0.900000 0.016078
6.236747 0.021951 0.018470 0.000001 0.900000 0.018470
6.341566 0.021951 0.019075 0.000725 0.900000 0.019089
6.446386 0.021951 0.019608 -0.000286 0.900000 0.019610
6.551205 0.021951 0.019873 0.000585 0.900000 0.019882
6.656024 0.021951 0.015168 0.000528 0.900000 0.015178
6.760843 0.021951 0.013679 0.000585 0.900000 0.013691
6.865663 0.021951 0.010154 0.000844 0.900000 0.010189
6.970482 0.021951 0.008759 0.000470 0.900000 0.008772
7.075301 0.021951 0.004904 0.001415 0.900000 0.005104
7.180120 0.021951 0.001862 -0.000117 0.900000 0.001866
7.284940 0.021951 0.004782 0.000553 0.900000 0.004814
7.389759 0.021951 0.001470 0.001307 0.900000 0.001967
7.494578 0.021951 0.000294 -0.000076 0.900000 0.000304
7.599398 0.021951 0.001295 0.000362 0.900000 0.001345
7.704217 0.021951 -0.001539 0.000502 0.900000 0.001618
7.809036 0.021951 -0.002344 -0.000239 0.900000 0.002356
7.913855 0.021951 -0.004347 0.000466 0.900000 0.004372
8.018675 0.021951 -0.007128 -0.000162 0.900000 0.007130
8.123494 0.021951 -0.000181 -0.000749 0.900000 0.000770
8.228313 0.021951 0.004997 0.000500 0.900000 0.005021
8.333133 0.021951 0.003744 0.000173 0.900000 0.003748
8.437952 0.021951 0.003327 0.000390 0.900000 0.003350
8.542771 0.021951 0.001247 0.000458 0.900000 0.001328
8.647590 0.021951 0.000000 0.000000 0.000000 0.000000
0.052410 0.036585 0.000000 0.000000 0.000000 0.000000
0.157229 0.036585 0.004323 -0.000366 0.900000 0.004339
0.262048 0.036585 0.012509 -0.000413 0.900000 0.012516
0.366867 0.036585 0.020037 -0.000674 0.900000 0.020048
0.471687 0.036585 0.026397 -0.000615 0.900000 0.026404
0.576506 0.036585 0.023190 0.001479 0.900000 0.023237
0.681325 0.036585 0.014715 0.002341 0.900000 0.014900
0.786145 0.036585 0.014167 -0.001073 0.900000 0.014207
0.890964 0.036585 0.021650 -0.000814 0.900000 0.021666
0.995783 0.036585 0.025215 -0.001188 0.900000 0.025243
1.100602 0.036585 0.023190 -0.001362 0.900000 0.023230
1.205422 0.036585 0.020469 -0.001191 0.900000 0.020504
1.310241 0.036585 0.016714 -0.001271 0.900000 0.016763
1.415060 0.036585 0.013665 -0.000847 0.900000 0.013691
1.519880 0.036585 0.010123 -0.000775 0.900000 0.010152
1.624699 0.036585 0.002617 -0.000073 0.900000 0.002618
1.729518 0.036585 -0.003105 -0.000583 0.900000 0.003159
1.834337 0.036585 0.004644 -0.000321 0.900000 0.004655
1.939157 0.036585 0.013678 -0.001276 0.900000 0.013737
2.043976 0.036585 0.018502 0.000395 0.900000 0.018506
2.148795 0.036585 0.019844 -0.001297 0.900000 0.019887
2.253614 0.036585 0.014793 -0.000899 0.900000 0.014820
2.358434 0.036585 0.006816 -0.000584 0.900000 0.006841
2.463253 0.036585 0.000540 -0.000750 0.900000 0.000924
2.568072 0.036585 -0.006214 -0.000120 0.900000 0.006215
2.672892 0.036585 -0.011057 -0.001418 0.900000 0.011148
2.777711 0.036585 -0.016805 -0.000419 0.900000 0.016810
2.882530 0.036585 -0.019525 -0.001848 0.900000 0.019612
2.987349 0.036585 -0.014542 0.001581 0.900000 0.014628
3.092169 0.036585 -0.011476 -0.001416 0.900000 0.011563
3.196988 0.036585 -0.000463 -0.000439 0.900000 0.000638
3.301807 0.036585 0.014389 -0.003254 0.900000 0.014753
3.406627 0.036585 0.013282 -0.002779 0.900000 0.013570
3.511446 0.036585 0.009935 -0.004069 0.900000 0.010736
3.616265 0.036585 0.003626 -0.000886 0.900000 0.003732
3.721084 0.036585 -0.011197 -0.000007 0.900000 0.011197
3.825904 0.036585 -0.019134 0.001562 0.900000 0.019197
3.930723 0.036585 -0.033310 0.000293 0.900000 0.033312
4.035542 0.036585 -0.038980 -0.001235 0.900000 0.038999
4.140361 0.036585 -0.017607 0.000593 0.900000 0.017617
4.245181 0.036585 0.003969 -0.001332 0.900000 0.004186
4.350000 0.036585 0.017754 0.001665 0.900000 0.017832
4.454819 0.036585 0.016281 -0.003206 0.900000 0.016594
4.559639 0.036585 0.001603 -0.000762 0.900000 0.001774
4.664458 0.036585 -0.000257 0.003147 0.900000 0.003157
4.769277 0.036585 -0.007976 -0.003597 0.900000 0.008749
4.874096 0.036585 -0.023771 -0.000497 0.900000 0.023777
4.978916 0.036585 -0.046807 0.006934 0.900000 0.047318
5.083735 0.036585 -0.053165 -0.006452 0.900000 0.053555
5.188554 0.036585 -0.038827 -0.000065 0.900000 0.038827
5.293373 0.036585 -0.031610 0.002794 0.900000 0.031733
5.398193 0.036585 -0.022105 -0.001100 0.900000 0.022133
5.503012 0.036585 -0.019272 -0.000622 0.900000 0.019282
5.607831 0.036585 -0.021798 -0.000953 0.900000 0.021819
5.712651 0.036585 -0.018763 0.001345 0.900000 0.018811
5.817470 0.036585 -0.015313 -0.000589 0.900000 0.015324
5.922289 0.036585 -0.012955 -0.000042 0.900000 0.012955
6.027108 0.036585 -0.014060 0.001024 0.900000 0.014097
6.131928 0.036585 -0.011038 0.001564 0.900000 0.011148
6.236747 0.036585 0.001285 -0.000405 0.900000 0.001348
6.341566 0.036585 0.001048 0.001866 0.900000 0.002140
6.446386 0.036585 -0.003331 -0.001264 0.900000 0.003563
6.551205 0.036585 -0.005248 0.000859 0.900000 0.005318
6.656024 0.036585 -0.009086 0.000766 0.900000 0.009119
6.760843 0.036585 -0.003939 0.000263 0.900000 0.003948
6.865663 0.036585 -0.007673 0.002608 0.900000 0.008104
6.970482 0.036585 -0.014131 0.000890 0.900000 0.014159
7.075301 0.036585 -0.011890 0.002341 0.900000 0.012118
7.180120 0.036585 -0.014497 -0.000274 0.900000 0.014500
7.284940 0.036585 -0.015084 0.001006 0.900000 0.015118
7.389759 0.036585 -0.008850 0.002477 0.900000 0.009190
7.494578 0.036585 -0.006243 0.000063 0.900000 0.006243
7.599398 0.036585 -0.009518 0.000697 0.900000 0.009543
7.704217 0.036585 -0.008989 0.000751 0.900000 0.009020
7.809036 0.036585 -0.011953 -0.000416 0.900000 0.011961
7.913855 0.036585 -0.020148 0.001133 0.900000 0.020180
8.018675 0.036585 -0.021006 -0.001481 0.900000 0.021058
8.123494 0.036585 -0.007576 -0.002787 0.900000 0.008073
8.228313 0.036585 0.002662 0.001248 0.900000 0.002940
8.333133 0.036585 0.002861 0.000511 0.900000 0.002907
8.437952 0.036585 0.002766 0.001115 0.900000 0.002983
8.542771 0.036585 0.001145 0.001357 0.900000 0.001776
8.647590 0.036585 0.000000 0.000000 0.000000 0.000000
0.052410 0.051220 0.000000 0.000000 0.000000 0.000000
0.157229 0.051220 0.004100 -0.000542 0.900000 0.004135
0.262048 0.051220 0.011917 -0.000656 0.900000 0.011935
0.366867 0.051220 0.018950 -0.001025 0.900000 0.018977
0.471687 0.051220 0.024119 -0.000827 0.900000 0.024134
0.576506 0.051220 0.021723 0.003191 0.900000 0.021956
0.681325 0.051220 0.016574 0.003554 0.900000 0.016951
0.786145 0.051220 0.016495 -0.001465 0.900000 0.016560
0.890964 0.051220 0.022310 -0.001534 0.900000 0.022363
0.995783 0.051220 0.025324 -0.001866 0.900000 0.025392
1.100602 0.051220 0.023220 -0.001900 0.900000 0.023298
1.205422 0.051220 0.020500 -0.001879 0.900000 0.020586
1.310241 0.051220 0.016716 -0.001420 0.900000 0.016776
1.415060 0.051220 0.013614 -0.001311 0.900000 0.013677
1.519880 0.051220 0.010116 -0.000873 0.900000 0.010154
1.624699 0.051220 0.002651 0.000045 0.900000 0.002651
1.729518 0.051220 -0.002936 -0.000760 0.900000 0.003032
1.834337 0.051220 0.004870 -0.000845 0.900000 0.004943
1.939157 0.051220 0.013764 -0.002023 0.900000 0.013912
2.043976 0.051220 0.018364 0.000099 0.900000 0.018364
2.148795 0.051220 0.019656 -0.001800 0.900000 0.019738
2.253614 0.051220 0.014737 -0.001301 0.900000 0.014795
2.358434 0.051220 0.006835 -0.000718 0.900000 0.006873
2.463253 0.051220 0.000702 -0.000707 0.900000 0.000996
2.568072 0.051220 -0.006006 -0.000744 0.900000 0.006052
2.672892 0.051220 -0.010773 -0.001867 0.900000 0.010934
2.777711 0.051220 -0.016430 -0.001149 0.900000 0.016470
2.882530 0.051220 -0.019213 -0.001642 0.900000 0.019283
2.987349 0.051220 -0.014571 0.001262 0.900000 0.014625
3.092169 0.051220 -0.011444 -0.001233 0.900000 0.011510
3.196988 0.051220 -0.000392 -0.001154 0.900000 0.001219
3.301807 0.051220 0.014618 -0.003191 0.900000 0.014963
3.406627 0.051220 0.014151 -0.003255 0.900000 0.014521
3.511446 0.051220 0.011170 -0.003691 0.900000 0.011764
3.616265 0.051220 0.004263 -0.001493 0.900000 0.004517
3.721084 0.051220 -0.011770 0.000003 0.900000 0.011770
3.825904 0.051220 -0.020589 0.000181 0.900000 0.020590
3.930723 0.051220 -0.033995 0.001455 0.900000 0.034026
4.035542 0.051220 -0.038254 -0.002398 0.900000 0.038329
4.140361 0.051220 -0.016711 -0.000567 0.900000 0.016720
4.245181 0.051220 0.004219 -0.001595 0.900000 0.004510
4.350000 0.051220 0.016943 0.000588 0.900000 0.016953
4.454819 0.051220 0.016024 -0.002871 0.900000 0.016279
4.559639 0.051220 0.000946 -0.000602 0.900000 0.001121
4.664458 0.051220 -0.001104 0.002132 0.900000 0.002401
4.769277 0.051220 -0.007793 -0.002955 0.900000 0.008334
4.874096 0.051220 -0.023755 -0.000995 0.900000 0.023776
4.978916 0.051220 -0.032871 0.009850 0.900000 0.034315
5.083735 0.051220 -0.038552 -0.010292 0.900000 0.039902
5.188554 0.051220 -0.039018 0.000506 0.900000 0.039021
5.293373 0.051220 -0.033456 0.002869 0.900000 0.033578
5.398193 0.051220 -0.023529 -0.001943 0.900000 0.023609
5.503012 0.051220 -0.019657 -0.000952 0.900000 0.019680
5.607831 0.051220 -0.021761 -0.001187 0.900000 0.021793
5.712651 0.051220 -0.018644 0.000736 0.900000 0.018658
5.817470 0.051220 -0.015615 -0.000474 0.900000 0.015622
5.922289 0.051220 -0.013917 -0.000300 0.900000 0.013920
6.027108 0.051220 -0.014678 0.002140 0.900000 0.014833
6.131928 0.051220 -0.011131 0.000600 0.900000 0.011147
6.236747 0.051220 0.001140 -0.001215 0.900000 0.001666
6.341566 0.051220 0.000856 0.002739 0.900000 0.002869
6.446386 0.051220 -0.003569 -0.002570 0.900000 0.004398
6.551205 0.051220 -0.005549 0.000236 0.900000 0.005554
6.656024 0.051220 -0.009231 0.000212 0.900000 0.009234
6.760843 0.051220 -0.003766 -0.001507 0.900000 0.004056
6.865663 0.051220 -0.007860 0.004445 0.900000 0.009029
6.970482 0.051220 -0.014432 0.000767 0.900000 0.014452
7.075301 0.051220 -0.011805 0.001374 0.900000 0.011885
7.180120 0.051220 -0.014472 -0.000310 0.900000 0.014476
7.284940 0.051220 -0.015605 0.000920 0.900000 0.015633
7.389759 0.051220 -0.009598 0.002180 0.900000 0.009843
7.494578 0.051220 -0.006347 0.000451 0.900000 0.006363
7.599398 0.051220 -0.009365 0.000667 0.900000 0.009389
7.704217 0.051220 -0.008771 0.000268 0.900000 0.008775
7.809036 0.051220 -0.011179 -0.000338 0.900000 0.011184
7.913855 0.051220 -0.016961 0.001392 0.900000 0.017018
8.018675 0.051220 -0.017475 -0.003382 0.900000 0.017799
8.123494 0.051220 -0.008092 -0.005059 0.900000 0.009544
8.228313 0.051220 0.000721 0.001561 0.900000 0.001720
8.333133 0.051220 0.001986 0.000838 0.900000 0.002156
8.437952 0.051220 0.002239 0.001736 0.900000 0.002833
8.542771 0.051220 0.001054 0.002224 0.900000 0.002461
8.647590 0.051220 0.000000 0.000000 0.000000 0.000000
0.052410 0.065854 0.000000 0.000000 0.000000 0.000000
0.157229 0.065854 0.003867 -0.000659 0.900000 0.003923
0.262048 0.065854 0.011309 -0.000873 0.900000 0.011342
0.366867 0.065854 0.017859 -0.001295 0.900000 0.017906
0.471687 0.065854 0.022143 -0.000878 0.900000 0.022161
0.576506 0.065854 0.020468 0.004479 0.900000 0.020952
0.681325 0.065854 0.018061 0.004152 0.900000 0.018532
0.786145 0.065854 0.018371 -0.001527 0.900000 0.018434
0.890964 0.065854 0.022828 -0.002059 0.900000 0.022921
0.995783 0.065854 0.025277 -0.002437 0.900000 0.025395
1.100602 0.065854 0.023022 -0.002428 0.900000 0.023150
1.205422 0.065854 0.020247 -0.002548 0.900000 0.020406
1.310241 0.065854 0.016363 -0.001743 0.900000 0.016456
1.415060 0.065854 0.013190 -0.001751 0.900000 0.013306
1.519880 0.065854 0.009836 -0.000699 0.900000 0.009860
1.624699 0.065854 0.002488 0.000218 0.900000 0.002497
1.729518 0.065854 -0.002969 -0.001007 0.900000 0.003135
1.834337 0.065854 0.004821 -0.001171 0.900000 0.004961
1.939157 0.065854 0.013655 -0.002767 0.900000 0.013933
2.043976 0.065854 0.018013 0.000008 0.900000 0.018013
2.148795 0.065854 0.019167 -0.002357 0.900000 0.019311
2.253614 0.065854 0.014294 -0.001819 0.900000 0.014410
2.358434 0.065854 0.006474 -0.000950 0.900000 0.006544
2.463253 0.065854 0.000451 -0.000632 0.900000 0.000777
2.568072 0.065854 -0.006306 -0.001281 0.900000 0.006435
2.672892 0.065854 -0.011127 -0.002205 0.900000 0.011344
2.777711 0.065854 -0.016834 -0.001841 0.900000 0.016934
2.882530 0.065854 -0.019543 -0.001500 0.900000 0.019601
2.987349 0.065854 -0.014857 0.000763 0.900000 0.014877
3.092169 0.065854 -0.011557 -0.001159 0.900000 0.011615
3.196988 0.065854 -0.000973 -0.001883 0.900000 0.002120
3.301807 0.065854 0.013447 -0.003161 0.900000 0.013814
3.406627 0.065854 0.012752 -0.003926 0.900000 0.013343
3.511446 0.065854 0.010166 -0.003477 0.900000 0.010744
3.616265 0.065854 0.004093 -0.002156 0.900000 0.004626
3.721084 0.065854 -0.011312 -0.000018 0.900000 0.011312
3.825904 0.065854 -0.020664 -0.001105 0.900000 0.020694
3.930723 0.065854 -0.034285 0.001848 0.900000 0.034335
4.035542 0.065854 -0.037690 -0.003679 0.900000 0.037869
4.140361 0.065854 -0.015830 -0.001696 0.900000 0.015920
4.245181 0.065854 0.004902 -0.002456 0.900000 0.005483
4.350000 0.065854 0.016318 -0.000415 0.900000 0.016323
4.454819 0.065854 0.015611 -0.002984 0.900000 0.015894
4.559639 0.065854 0.000762 -0.000292 0.900000 0.000816
4.664458 0.065854 -0.001975 0.000920 0.900000 0.002179
4.769277 0.065854 -0.008545 -0.002440 0.900000 0.008886
4.874096 0.065854 -0.023031 -0.001781 0.900000 0.023100
4.978916 0.065854 -0.016675 0.008953 0.900000 0.018926
5.083735 0.065854 -0.023844 -0.010349 0.900000 0.025993
5.188554 0.065854 -0.039678 0.001064 0.900000 0.039692
5.293373 0.065854 -0.034293 0.003138 0.900000 0.034437
5.398193 0.065854 -0.024165 -0.003026 0.900000 0.024354
5.503012 0.065854 -0.019703 -0.001452 0.900000 0.019756
5.607831 0.065854 -0.021524 -0.001560 0.900000 0.021581
5.712651 0.065854 -0.018720 -0.000011 0.900000 0.018720
5.817470 0.065854 -0.016379 -0.000716 0.900000 0.016395
5.922289 0.065854 -0.014790 -0.000553 0.900000 0.014801
6.027108 0.065854 -0.014858 0.003077 0.900000 0.015173
6.131928 0.065854 -0.011066 -0.000318 0.900000 0.011070
6.236747 0.065854 0.001234 -0.002067 0.900000 0.002407
6.341566 0.065854 0.000496 0.003787 0.900000 0.003819
6.446386 0.065854 -0.003788 -0.003880 0.900000 0.005422
6.551205 0.065854 -0.005280 -0.000331 0.900000 0.005290
6.656024 0.065854 -0.009365 -0.000268 0.900000 0.009369
6.760843 0.065854 -0.009224 -0.002530 0.900000 0.009564
6.865663 0.065854 -0.013132 0.005518 0.900000 0.014244
6.970482 0.065854 -0.014638 0.000465 0.900000 0.014646
7.075301 0.065854 -0.012024 0.000361 0.900000 0.012029
7.180120 0.065854 -0.014601 -0.000239 0.900000 0.014603
7.284940 0.065854 -0.016138 0.001002 0.900000 0.016169
7.389759 0.065854 -0.010243 0.001899 0.900000 0.010417
7.494578 0.065854 -0.006650 0.000753 0.900000 0.006692
7.599398 0.065854 -0.009315 0.000709 0.900000 0.009342
7.704217 0.065854 -0.008638 -0.000166 0.900000 0.008640
7.809036 0.065854 -0.010424 -0.000373 0.900000 0.010430
7.913855 0.065854 -0.014239 0.001356 0.900000 0.014304
8.018675 0.065854 -0.012036 -0.004889 0.900000 0.012991
8.123494 0.065854 -0.005815 -0.006431 0.900000 0.008670
8.228313 0.065854 -0.000900 0.001578 0.900000 0.001817
8.333133 0.065854 0.001134 0.001148 0.900000 0.001614
8.437952 0.065854 0.001775 0.002262 0.900000 0.002875
8.542771 0.065854 0.000973 0.003065 0.900000 0.003216
8.647590 0.065854 0.000000 0.000000 0.000000 0.000000
0.052410 0.080488 0.000000 0.000000 0.000000 0.000000
0.157229 0.080488 0.003642 -0.000718 0.900000 0.003712
0.262048 0.080488 0.010679 -0.001060 0.900000 0.010731
0.366867 0.080488 0.016784 -0.001498 0.900000 0.016851
0.471687 0.080488 0.020476 -0.000808 0.900000 0.020492
0.576506 0.080488 0.019651 0.005419 0.900000 0.020385
0.681325 0.080488 0.019143 0.004307 0.900000 0.019621
0.786145 0.080488 0.019712 -0.001372 0.900000 0.019759
0.890964 0.080488 0.023356 -0.002424 0.900000 0.023482
0.995783 0.080488 0.025361 -0.002846 0.900000 0.025520
1.100602 0.080488 0.022995 -0.003044 0.900000 0.023196
1.205422 0.080488 0.020015 -0.003128 0.900000 0.020258
1.310241 0.080488 0.016025 -0.002478 0.900000 0.016216
1.415060 0.080488 0.012816 -0.002161 0.900000 0.012996
1.519880 0.080488 0.009616 -0.000483 0.900000 0.009628
1.624699 0.080488 0.002320 0.000368 0.900000 0.002349
1.729518 0.080488 -0.002927 -0.001348 0.900000 0.003223
1.834337 0.080488 0.004848 -0.001472 0.900000 0.005066
1.939157 0.080488 0.013627 -0.003631 0.900000 0.014102
2.043976 0.080488 0.017742 -0.000246 0.900000 0.017744
2.148795 0.080488 0.018665 -0.003088 0.900000 0.018919
2.253614 0.080488 0.013890 -0.002229 0.900000 0.014067
2.358434 0.080488 0.006159 -0.001367 0.900000 0.006309
2.463253 0.080488 0.000198 -0.000596 0.900000 0.000628
2.568072 0.080488 -0.006596 -0.001932 0.900000 0.006873
2.672892 0.080488 -0.011490 -0.002602 0.900000 0.011781
2.777711 0.080488 -0.017250 -0.002644 0.900000 0.017452
2.882530 0.080488 -0.019917 -0.001490 0.900000 0.019972
2.987349 0.080488 -0.015239 -0.000108 0.900000 0.015239
3.092169 0.080488 -0.011734 -0.001126 0.900000 0.011788
3.196988 0.080488 -0.001470 -0.002746 0.900000 0.003115
3.301807 0.080488 0.012400 -0.003000 0.900000 0.012758
3.406627 0.080488 0.011498 -0.004782 0.900000 0.012453
3.511446 0.080488 0.009285 -0.003514 0.900000 0.009928
3.616265 0.080488 0.004064 -0.003100 0.900000 0.005112
3.721084 0.080488 -0.010634 -0.000181 0.900000 0.010636
3.825904 0.080488 -0.020538 -0.002257 0.900000 0.020662
3.930723 0.080488 -0.034459 0.001773 0.900000 0.034505
4.035542 0.080488 -0.037108 -0.004953 0.900000 0.037437
4.140361 0.080488 -0.014948 -0.002957 0.900000 0.015238
4.245181 0.080488 0.005589 -0.004404 0.900000 0.007115
4.350000 0.080488 0.016257 -0.001357 0.900000 0.016314
4.454819 0.080488 0.015759 -0.003435 0.900000 0.016129
4.559639 0.080488 0.001404 0.000009 0.900000 0.001404
4.664458 0.080488 -0.001854 -0.000253 0.900000 0.001872
4.769277 0.080488 -0.008421 -0.001989 0.900000 0.008653
4.874096 0.080488 -0.022213 -0.002832 0.900000 0.022393
4.978916 0.080488 -0.016839 0.006355 0.900000 0.017999
5.083735 0.080488 -0.024149 -0.008636 0.900000 0.025647
5.188554 0.080488 -0.038503 0.001386 0.900000 0.038528
5.293373 0.080488 -0.034198 0.003813 0.900000 0.034410
5.398193 0.080488 -0.024410 -0.004424 0.900000 0.024807
5.503012 0.080488 -0.019236 -0.002098 0.900000 0.019350
5.607831 0.080488 -0.021414 -0.002043 0.900000 0.021512
5.712651 0.080488 -0.019623 -0.001003 0.900000 0.019649
5.817470 0.080488 -0.017350 -0.001215 0.900000 0.017392
5.922289 0.080488 -0.015091 -0.000863 0.900000 0.015116
6.027108 0.080488 -0.014106 0.003745 0.900000 0.014595
6.131928 0.080488 -0.009968 -0.001106 0.900000 0.010029
6.236747 0.080488 0.001702 -0.003013 0.900000 0.003461
6.341566 0.080488 0.006259 0.004301 0.900000 0.007594
6.446386 0.080488 0.001910 -0.004752 0.900000 0.005121
6.551205 0.080488 -0.005041 -0.000782 0.900000 0.005102
6.656024 0.080488 -0.009572 -0.000590 0.900000 0.009590
6.760843 0.080488 -0.015060 -0.002226 0.900000 0.015224
6.865663 0.080488 -0.018790 0.005047 0.900000 0.019456
6.970482 0.080488 -0.014937 -0.000143 0.900000 0.014938
7.075301 0.080488 -0.012197 -0.000780 0.900000 0.012222
7.180120 0.080488 -0.014692 -0.000038 0.900000 0.014692
7.284940 0.080488 -0.016194 0.001120 0.900000 0.016232
7.389759 0.080488 -0.010278 0.001740 0.900000 0.010424
7.494578 0.080488 -0.006772 0.000917 0.900000 0.006833
7.599398 0.080488 -0.009158 0.000752 0.900000 0.009189
7.704217 0.080488 -0.008425 -0.000547 0.900000 0.008443
7.809036 0.080488 -0.009558 -0.000474 0.900000 0.009569
7.913855 0.080488 -0.011841 0.001065 0.900000 0.011889
8.018675 0.080488 -0.007677 -0.006356 0.900000 0.009967
8.123494 0.080488 -0.003818 -0.006764 0.900000 0.007767
8.228313 0.080488 -0.002160 0.001445 0.900000 0.002599
8.333133 0.080488 0.000272 0.001401 0.900000 0.001427
8.437952 0.080488 0.001391 0.002706 0.900000 0.003043
8.542771 0.080488 0.000905 0.003886 0.900000 0.003990
8.647590 0.080488 0.000000 0.000000 0.000000 0.000000
0.052410 0.095122 0.000000 0.000000 0.000000 0.000000
0.157229 0.095122 0.003410 -0.000719 0.900000 0.003485
0.262048 0.095122 0.010051 -0.001212 0.900000 0.010123
0.366867 0.095122 0.015695 -0.001640 0.900000 0.015780
0.471687 0.095122 0.018972 -0.000676 0.900000 0.018984
0.576506 0.095122 0.019027 0.006037 0.900000 0.019962
0.681325 0.095122 0.020024 0.004239 0.900000 0.020467
0.786145 0.095122 0.020972 -0.001156 0.900000 0.021003
0.890964 0.095122 0.024064 -0.002727 0.900000 0.024218
0.995783 0.095122 0.025667 -0.003115 0.900000 0.025855
1.100602 0.095122 0.023157 -0.003688 0.900000 0.023449
1.205422 0.095122 0.019990 -0.003653 0.900000 0.020321
1.310241 0.095122 0.015903 -0.003396 0.900000 0.016261
1.415060 0.095122 0.012726 -0.002365 0.900000 0.012944
1.519880 0.095122 0.009648 -0.000347 0.900000 0.009655
1.624699 0.095122 0.002308 0.000379 0.900000 0.002338
1.729518 0.095122 -0.002690 -0.001806 0.900000 0.003240
1.834337 0.095122 0.005004 -0.001981 0.900000 0.005382
1.939157 0.095122 0.013682 -0.004618 0.900000 0.014440
2.043976 0.095122 0.017675 -0.001106 0.900000 0.017709
2.148795 0.095122 0.018405 -0.003980 0.900000 0.018830
2.253614 0.095122 0.013854 -0.002425 0.900000 0.014065
2.358434 0.095122 0.006260 -0.001932 0.900000 0.006551
2.463253 0.095122 0.000374 -0.000778 0.900000 0.000863
2.568072 0.095122 -0.006501 -0.002901 0.900000 0.007119
2.672892 0.095122 -0.011478 -0.003268 0.900000 0.011934
2.777711 0.095122 -0.017322 -0.003662 0.900000 0.017705
2.882530 0.095122 -0.020034 -0.001655 0.900000 0.020103
2.987349 0.095122 -0.015481 -0.001290 0.900000 0.015535
3.092169 0.095122 -0.012001 -0.001103 0.900000 0.012052
3.196988 0.095122 -0.001442 -0.003714 0.900000 0.003984
3.301807 0.095122 0.012498 -0.002701 0.900000 0.012787
3.406627 0.095122 0.011577 -0.005806 0.900000 0.012951
3.511446 0.095122 0.009258 -0.003679 0.900000 0.009962
3.616265 0.095122 0.004120 -0.004235 0.900000 0.005908
3.721084 0.095122 -0.010570 -0.000357 0.900000 0.010576
3.825904 0.095122 -0.020787 -0.003382 0.900000 0.021060
3.930723 0.095122 -0.034406 0.001615 0.900000 0.034443
4.035542 0.095122 -0.036461 -0.006163 0.900000 0.036978
4.140361 0.095122 -0.014251 -0.004291 0.900000 0.014883
4.245181 0.095122 0.006037 -0.006616 0.900000 0.008957
4.350000 0.095122 0.016070 -0.002206 0.900000 0.016221
4.454819 0.095122 0.015578 -0.004026 0.900000 0.016089
4.559639 0.095122 0.001822 0.000577 0.900000 0.001911
4.664458 0.095122 -0.001603 -0.001291 0.900000 0.002058
4.769277 0.095122 -0.008312 -0.001582 0.900000 0.008461