TITLE="(Vx,Vy)"
VARIABLES=X,Y,Vx,Vy,Vm,V
ZONE T="T-Dummy" I=83, J=41, F=POINT
0.052410 0.007317 0.000000 0.000000 0.000000 0.000000
0.157229 0.007317 0.000000 0.000000 0.000000 0.000000
0.262048 0.007317 0.000000 0.000000 0.000000 0.000000
0.366867 0.007317 0.000000 0.000000 0.000000 0.000000
0.471687 0.007317 0.000000 0.000000 0.000000 0.000000
0.576506 0.007317 0.000000 0.000000 0.000000 0.000000
0.681325 0.007317 0.000000 0.000000 0.000000 0.000000
0.786145 0.007317 0.000000 0.000000 0.000000 0.000000
0.890964 0.007317 0.000000 0.000000 0.000000 0.000000
0.995783 0.007317 0.000000 0.000000 0.000000 0.000000
1.100602 0.007317 0.000000 0.000000 0.000000 0.000000
1.205422 0.007317 0.000000 0.000000 0.000000 0.000000
1.310241 0.007317 0.000000 0.000000 0.000000 0.000000
1.415060 0.007317 0.000000 0.000000 0.000000 0.000000
1.519880 0.007317 0.000000 0.000000 0.000000 0.000000
1.624699 0.007317 0.000000 0.000000 0.000000 0.000000
1.729518 0.007317 0.000000 0.000000 0.000000 0.000000
1.834337 0.007317 0.000000 0.000000 0.000000 0.000000
1.939157 0.007317 0.000000 0.000000 0.000000 0.000000
2.043976 0.007317 0.000000 0.000000 0.000000 0.000000
2.148795 0.007317 0.000000 0.000000 0.000000 0.000000
2.253614 0.007317 0.000000 0.000000 0.000000 0.000000
2.358434 0.007317 0.000000 0.000000 0.000000 0.000000
2.463253 0.007317 0.000000 0.000000 0.000000 0.000000
2.568072 0.007317 0.000000 0.000000 0.000000 0.000000
2.672892 0.007317 0.000000 0.000000 0.000000 0.000000
2.777711 0.007317 0.000000 0.000000 0.000000 0.000000
2.882530 0.007317 0.000000 0.000000 0.000000 0.000000
2.987349 0.007317 0.000000 0.000000 0.000000 0.000000
3.092169 0.007317 0.000000 0.000000 0.000000 0.000000
3.196988 0.007317 0.000000 0.000000 0.000000 0.000000
3.301807 0.007317 0.000000 0.000000 0.000000 0.000000
3.406627 0.007317 0.000000 0.000000 0.000000 0.000000
3.511446 0.007317 0.000000 0.000000 0.000000 0.000000
3.616265 0.007317 0.000000 0.000000 0.000000 0.000000
3.721084 0.007317 0.000000 0.000000 0.000000 0.000000
3.825904 0.007317 0.000000 0.000000 0.000000 0.000000
3.930723 0.007317 0.000000 0.000000 0.000000 0.000000
4.035542 0.007317 0.000000 0.000000 0.000000 0.000000
4.140361 0.007317 0.000000 0.000000 0.000000 0.000000
4.245181 0.007317 0.000000 0.000000 0.000000 0.000000
4.350000 0.007317 0.000000 0.000000 0.000000 0.000000
4.454819 0.007317 0.000000 0.000000 0.000000 0.000000
4.559639 0.007317 0.000000 0.000000 0.000000 0.000000
4.664458 0.007317 0.000000 0.000000 0.000000 0.000000
4.769277 0.007317 0.000000 0.000000 0.000000 0.000000
4.874096 0.007317 0.000000 0.000000 0.000000 0.000000
4.978916 0.007317 0.000000 0.000000 0.000000 0.000000
5.083735 0.007317 0.000000 0.000000 0.000000 0.000000
5.188554 0.007317 0.000000 0.000000 0.000000 0.000000
5.293373 0.007317 0.000000 0.000000 0.000000 0.000000
5.398193 0.007317 0.000000 0.000000 0.000000 0.000000
5.503012 0.007317 0.000000 0.000000 0.000000 0.000000
5.607831 0.007317 0.000000 0.000000 0.000000 0.000000
5.712651 0.007317 0.000000 0.000000 0.000000 0.000000
5.817470 0.007317 0.000000 0.000000 0.000000 0.000000
5.922289 0.007317 0.000000 0.000000 0.000000 0.000000
6.027108 0.007317 0.000000 0.000000 0.000000 0.000000
6.131928 0.007317 0.000000 0.000000 0.000000 0.000000
6.236747 0.007317 0.000000 0.000000 0.000000 0.000000
6.341566 0.007317 0.000000 0.000000 0.000000 0.000000
6.446386 0.007317 0.000000 0.000000 0.000000 0.000000
6.551205 0.007317 0.000000 0.000000 0.000000 0.000000
6.656024 0.007317 0.000000 0.000000 0.000000 0.000000
6.760843 0.007317 0.000000 0.000000 0.000000 0.000000
6.865663 0.007317 0.000000 0.000000 0.000000 0.000000
6.970482 0.007317 0.000000 0.000000 0.000000 0.000000
7.075301 0.007317 0.000000 0.000000 0.000000 0.000000
7.180120 0.007317 0.000000 0.000000 0.000000 0.000000
7.284940 0.007317 0.000000 0.000000 0.000000 0.000000
7.389759 0.007317 0.000000 0.000000 0.000000 0.000000
7.494578 0.007317 0.000000 0.000000 0.000000 0.000000
7.599398 0.007317 0.000000 0.000000 0.000000 0.000000
7.704217 0.007317 0.000000 0.000000 0.000000 0.000000
7.809036 0.007317 0.000000 0.000000 0.000000 0.000000
7.913855 0.007317 0.000000 0.000000 0.000000 0.000000
8.018675 0.007317 0.000000 0.000000 0.000000 0.000000
8.123494 0.007317 0.000000 0.000000 0.000000 0.000000
8.228313 0.007317 0.000000 0.000000 0.000000 0.000000
8.333133 0.007317 0.000000 0.000000 0.000000 0.000000
8.437952 0.007317 0.000000 0.000000 0.000000 0.000000
8.542771 0.007317 0.000000 0.000000 0.000000 0.000000
8.647590 0.007317 0.000000 0.000000 0.000000 0.000000
0.052410 0.021951 0.000000 0.000000 0.000000 0.000000
0.157229 0.021951 -0.001546 -0.000144 0.900000 0.001552
0.262048 0.021951 -0.004476 -0.000159 0.900000 0.004479
0.366867 0.021951 -0.006639 -0.000203 0.900000 0.006642
0.471687 0.021951 -0.006299 -0.000407 0.900000 0.006312
0.576506 0.021951 -0.002013 -0.000491 0.900000 0.002072
0.681325 0.021951 -0.000366 0.000335 0.900000 0.000496
0.786145 0.021951 -0.004069 0.000334 0.900000 0.004082
0.890964 0.021951 -0.004629 -0.000046 0.900000 0.004629
0.995783 0.021951 -0.002685 0.000223 0.900000 0.002694
1.100602 0.021951 -0.002857 0.000420 0.900000 0.002888
1.205422 0.021951 -0.002346 0.000244 0.900000 0.002358
1.310241 0.021951 0.002921 0.000029 0.900000 0.002921
1.415060 0.021951 0.008696 0.000456 0.900000 0.008708
1.519880 0.021951 0.009479 0.000924 0.900000 0.009524
1.624699 0.021951 0.008705 0.000845 0.900000 0.008746
1.729518 0.021951 0.011945 0.000399 0.900000 0.011952
1.834337 0.021951 0.015993 0.000674 0.900000 0.016007
1.939157 0.021951 0.015493 0.000904 0.900000 0.015520
2.043976 0.021951 0.014944 0.000865 0.900000 0.014969
2.148795 0.021951 0.020252 0.000502 0.900000 0.020259
2.253614 0.021951 0.025966 0.000858 0.900000 0.025980
2.358434 0.021951 0.025860 0.001232 0.900000 0.025889
2.463253 0.021951 0.022649 0.001791 0.900000 0.022720
2.568072 0.021951 0.020786 0.001443 0.900000 0.020836
2.672892 0.021951 0.027134 0.000193 0.900000 0.027134
2.777711 0.021951 0.035128 0.000764 0.900000 0.035137
2.882530 0.021951 0.039508 0.000922 0.900000 0.039519
2.987349 0.021951 0.043258 0.001099 0.900000 0.043272
3.092169 0.021951 0.042679 0.001220 0.900000 0.042696
3.196988 0.021951 0.038277 0.001432 0.900000 0.038304
3.301807 0.021951 0.038559 0.001578 0.900000 0.038591
3.406627 0.021951 0.042741 0.001693 0.900000 0.042775
3.511446 0.021951 0.044641 0.001766 0.900000 0.044676
3.616265 0.021951 0.041245 0.002456 0.900000 0.041318
3.721084 0.021951 0.029097 0.002646 0.900000 0.029217
3.825904 0.021951 0.026049 0.000206 0.900000 0.026050
3.930723 0.021951 0.034860 -0.000414 0.900000 0.034863
4.035542 0.021951 0.040985 -0.000260 0.900000 0.040986
4.140361 0.021951 0.052856 -0.001211 0.900000 0.052869
4.245181 0.021951 0.063890 0.000625 0.900000 0.063893
4.350000 0.021951 0.062609 0.001592 0.900000 0.062630
4.454819 0.021951 0.056573 0.001284 0.900000 0.056587
4.559639 0.021951 0.053432 0.000205 0.900000 0.053432
4.664458 0.021951 0.052133 0.001006 0.900000 0.052143
4.769277 0.021951 0.047730 0.001177 0.900000 0.047744
4.874096 0.021951 0.040995 0.001748 0.900000 0.041032
4.978916 0.021951 0.031828 0.001951 0.900000 0.031888
5.083735 0.021951 0.035641 0.001186 0.900000 0.035661
5.188554 0.021951 0.047697 0.001944 0.900000 0.047737
5.293373 0.021951 0.054256 0.001131 0.900000 0.054268
5.398193 0.021951 0.058851 0.001189 0.900000 0.058863
5.503012 0.021951 0.050622 0.002841 0.900000 0.050701
5.607831 0.021951 0.039174 0.000790 0.900000 0.039182
5.712651 0.021951 0.045690 -0.001527 0.900000 0.045715
5.817470 0.021951 0.057621 -0.000821 0.900000 0.057627
5.922289 0.021951 0.059279 0.000047 0.900000 0.059279
6.027108 0.021951 0.051495 0.000793 0.900000 0.051501
6.131928 0.021951 0.041812 0.000114 0.900000 0.041813
6.236747 0.021951 0.048020 -0.000939 0.900000 0.048029
6.341566 0.021951 0.058141 -0.000566 0.900000 0.058144
6.446386 0.021951 0.053762 0.000144 0.900000 0.053762
6.551205 0.021951 0.049006 0.000665 0.900000 0.049011
6.656024 0.021951 0.048249 -0.000128 0.900000 0.048249
6.760843 0.021951 0.047401 -0.000760 0.900000 0.047407
6.865663 0.021951 0.049791 -0.000465 0.900000 0.049793
6.970482 0.021951 0.053107 0.000140 0.900000 0.053107
7.075301 0.021951 0.050037 0.000576 0.900000 0.050041
7.180120 0.021951 0.045963 0.000298 0.900000 0.045964
7.284940 0.021951 0.047936 -0.000325 0.900000 0.047937
7.389759 0.021951 0.051052 -0.000633 0.900000 0.051056
7.494578 0.021951 0.052093 -0.000117 0.900000 0.052094
7.599398 0.021951 0.049562 0.000207 0.900000 0.049562
7.704217 0.021951 0.045662 0.000347 0.900000 0.045664
7.809036 0.021951 0.044107 0.000027 0.900000 0.044107
7.913855 0.021951 0.045207 -0.000325 0.900000 0.045208
8.018675 0.021951 0.045514 0.000265 0.900000 0.045515
8.123494 0.021951 0.042547 0.000220 0.900000 0.042547
8.228313 0.021951 0.037136 0.000279 0.900000 0.037137
8.333133 0.021951 0.029322 0.000330 0.900000 0.029323
8.437952 0.021951 0.019201 0.000351 0.900000 0.019205
8.542771 0.021951 0.006822 0.000476 0.900000 0.006838
8.647590 0.021951 0.000000 0.000000 0.000000 0.000000
0.052410 0.036585 0.000000 0.000000 0.000000 0.000000
0.157229 0.036585 -0.001648 -0.000418 0.900000 0.001700
0.262048 0.036585 -0.004783 -0.000464 0.900000 0.004806
0.366867 0.036585 -0.007169 -0.000593 0.900000 0.007193
0.471687 0.036585 -0.007406 -0.001152 0.900000 0.007495
0.576506 0.036585 -0.004597 -0.001314 0.900000 0.004781
0.681325 0.036585 -0.003463 0.000873 0.900000 0.003572
0.786145 0.036585 -0.006329 0.000855 0.900000 0.006386
0.890964 0.036585 -0.007149 -0.000124 0.900000 0.007150
0.995783 0.036585 -0.006014 0.000602 0.900000 0.006044
1.100602 0.036585 -0.006344 0.001177 0.900000 0.006453
1.205422 0.036585 -0.005661 0.000723 0.900000 0.005707
1.310241 0.036585 -0.000867 0.000221 0.900000 0.000894
1.415060 0.036585 0.004006 0.001234 0.900000 0.004191
1.519880 0.036585 0.004652 0.002620 0.900000 0.005339
1.624699 0.036585 0.004461 0.002336 0.900000 0.005035
1.729518 0.036585 0.007476 0.001208 0.900000 0.007573
1.834337 0.036585 0.010620 0.001834 0.900000 0.010777
1.939157 0.036585 0.009888 0.002556 0.900000 0.010213
2.043976 0.036585 0.009524 0.002439 0.900000 0.009831
2.148795 0.036585 0.014218 0.001661 0.900000 0.014315
2.253614 0.036585 0.018978 0.002409 0.900000 0.019130
2.358434 0.036585 0.018657 0.003617 0.900000 0.019004
2.463253 0.036585 0.016088 0.005158 0.900000 0.016894
2.568072 0.036585 0.015726 0.004115 0.900000 0.016256
2.672892 0.036585 0.021878 0.000618 0.900000 0.021886
2.777711 0.036585 0.028586 0.002350 0.900000 0.028682
2.882530 0.036585 0.032607 0.002601 0.900000 0.032710
2.987349 0.036585 0.035954 0.003119 0.900000 0.036089
3.092169 0.036585 0.035189 0.003419 0.900000 0.035355
3.196988 0.036585 0.030470 0.004259 0.900000 0.030766
3.301807 0.036585 0.030192 0.004578 0.900000 0.030537
3.406627 0.036585 0.033889 0.004763 0.900000 0.034222
3.511446 0.036585 0.035293 0.005003 0.900000 0.035645
3.616265 0.036585 0.032715 0.007132 0.900000 0.033483
3.721084 0.036585 0.023920 0.007510 0.900000 0.025072
3.825904 0.036585 0.024171 0.000394 0.900000 0.024174
3.930723 0.036585 0.031694 -0.000942 0.900000 0.031708
4.035542 0.036585 0.034452 -0.000444 0.900000 0.034455
4.140361 0.036585 0.044389 -0.003310 0.900000 0.044512
4.245181 0.036585 0.053869 0.002351 0.900000 0.053921
4.350000 0.036585 0.052835 0.004870 0.900000 0.053059
4.454819 0.036585 0.050217 0.003866 0.900000 0.050366
4.559639 0.036585 0.048083 0.000714 0.900000 0.048088
4.664458 0.036585 0.045116 0.003274 0.900000 0.045235
4.769277 0.036585 0.040049 0.003511 0.900000 0.040202
4.874096 0.036585 0.033698 0.005329 0.900000 0.034116
4.978916 0.036585 0.026281 0.005587 0.900000 0.026868
5.083735 0.036585 0.029984 0.003869 0.900000 0.030233
5.188554 0.036585 0.042309 0.005637 0.900000 0.042683
5.293373 0.036585 0.051455 0.003287 0.900000 0.051560
5.398193 0.036585 0.053852 0.004091 0.900000 0.054007
5.503012 0.036585 0.045889 0.008057 0.900000 0.046591
5.607831 0.036585 0.039799 0.001901 0.900000 0.039844
5.712651 0.036585 0.045866 -0.004241 0.900000 0.046061
5.817470 0.036585 0.054920 -0.002381 0.900000 0.054972
5.922289 0.036585 0.055911 0.000167 0.900000 0.055911
6.027108 0.036585 0.049621 0.002106 0.900000 0.049666
6.131928 0.036585 0.041821 0.000295 0.900000 0.041822
6.236747 0.036585 0.047115 -0.002489 0.900000 0.047181
6.341566 0.036585 0.055526 -0.001519 0.900000 0.055547
6.446386 0.036585 0.050765 0.000457 0.900000 0.050767
6.551205 0.036585 0.046910 0.002085 0.900000 0.046956
6.656024 0.036585 0.048020 -0.000361 0.900000 0.048022
6.760843 0.036585 0.046852 -0.002047 0.900000 0.046896
6.865663 0.036585 0.047673 -0.001025 0.900000 0.047684
6.970482 0.036585 0.050823 0.000588 0.900000 0.050826
7.075301 0.036585 0.048072 0.001647 0.900000 0.048100
7.180120 0.036585 0.044190 0.001049 0.900000 0.044203
7.284940 0.036585 0.047015 -0.000967 0.900000 0.047025
7.389759 0.036585 0.050199 -0.001625 0.900000 0.050225
7.494578 0.036585 0.050197 -0.000020 0.900000 0.050197
7.599398 0.036585 0.047609 0.000841 0.900000 0.047616
7.704217 0.036585 0.044583 0.001148 0.900000 0.044598
7.809036 0.036585 0.043930 0.000312 0.900000 0.043932
7.913855 0.036585 0.044721 -0.000540 0.900000 0.044725
8.018675 0.036585 0.044873 0.001015 0.900000 0.044885
8.123494 0.036585 0.042244 0.000645 0.900000 0.042249
8.228313 0.036585 0.036812 0.000796 0.900000 0.036820
8.333133 0.036585 0.029166 0.000966 0.900000 0.029182
8.437952 0.036585 0.019113 0.001058 0.900000 0.019142
8.542771 0.036585 0.006765 0.001420 0.900000 0.006912
8.647590 0.036585 0.000000 0.000000 0.000000 0.000000
0.052410 0.051220 0.000000 0.000000 0.000000 0.000000
0.157229 0.051220 -0.001751 -0.000665 0.900000 0.001873
0.262048 0.051220 -0.005105 -0.000741 0.900000 0.005158
0.366867 0.051220 -0.007731 -0.000950 0.900000 0.007789
0.471687 0.051220 -0.008545 -0.001761 0.900000 0.008725
0.576506 0.051220 -0.006995 -0.001864 0.900000 0.007239
0.681325 0.051220 -0.006440 0.001186 0.900000 0.006549
0.786145 0.051220 -0.008670 0.001154 0.900000 0.008746
0.890964 0.051220 -0.009609 -0.000216 0.900000 0.009611
0.995783 0.051220 -0.009087 0.000883 0.900000 0.009129
1.100602 0.051220 -0.009449 0.001709 0.900000 0.009602
1.205422 0.051220 -0.008508 0.001093 0.900000 0.008578
1.310241 0.051220 -0.004086 0.000448 0.900000 0.004110
1.415060 0.051220 0.000011 0.001804 0.900000 0.001804
1.519880 0.051220 0.000562 0.003924 0.900000 0.003964
1.624699 0.051220 0.000809 0.003486 0.900000 0.003578
1.729518 0.051220 0.003528 0.001927 0.900000 0.004020
1.834337 0.051220 0.005855 0.002697 0.900000 0.006446
1.939157 0.051220 0.004888 0.003777 0.900000 0.006177
2.043976 0.051220 0.004893 0.003634 0.900000 0.006095
2.148795 0.051220 0.009209 0.002668 0.900000 0.009588
2.253614 0.051220 0.013067 0.003663 0.900000 0.013570
2.358434 0.051220 0.012490 0.005598 0.900000 0.013687
2.463253 0.051220 0.010532 0.007959 0.900000 0.013201
2.568072 0.051220 0.011400 0.006147 0.900000 0.012952
2.672892 0.051220 0.017206 0.001025 0.900000 0.017236
2.777711 0.051220 0.022629 0.003650 0.900000 0.022922
2.882530 0.051220 0.026054 0.003934 0.900000 0.026349
2.987349 0.051220 0.028758 0.004696 0.900000 0.029139
3.092169 0.051220 0.027645 0.005203 0.900000 0.028131
3.196988 0.051220 0.022855 0.006669 0.900000 0.023808
3.301807 0.051220 0.022303 0.007088 0.900000 0.023402
3.406627 0.051220 0.025385 0.007117 0.900000 0.026363
3.511446 0.051220 0.026282 0.007662 0.900000 0.027376
3.616265 0.051220 0.024396 0.011060 0.900000 0.026786
3.721084 0.051220 0.018254 0.011547 0.900000 0.021600
3.825904 0.051220 0.021032 0.000133 0.900000 0.021033
3.930723 0.051220 0.027402 -0.000862 0.900000 0.027415
4.035542 0.051220 0.029253 -0.000608 0.900000 0.029260
4.140361 0.051220 0.038688 -0.004974 0.900000 0.039007
4.245181 0.051220 0.045803 0.004399 0.900000 0.046014
4.350000 0.051220 0.044316 0.008004 0.900000 0.045033
4.454819 0.051220 0.043422 0.005935 0.900000 0.043826
4.559639 0.051220 0.041294 0.001394 0.900000 0.041317
4.664458 0.051220 0.036995 0.005510 0.900000 0.037403
4.769277 0.051220 0.031829 0.005625 0.900000 0.032322
4.874096 0.051220 0.026383 0.008495 0.900000 0.027717
4.978916 0.051220 0.020768 0.008483 0.900000 0.022433
5.083735 0.051220 0.024746 0.006285 0.900000 0.025531
5.188554 0.051220 0.038180 0.008443 0.900000 0.039103
5.293373 0.051220 0.047584 0.005273 0.900000 0.047875
5.398193 0.051220 0.046667 0.007675 0.900000 0.047294
5.503012 0.051220 0.040666 0.011967 0.900000 0.042390
5.607831 0.051220 0.039548 0.002412 0.900000 0.039622
5.712651 0.051220 0.045033 -0.006337 0.900000 0.045477
5.817470 0.051220 0.051700 -0.003624 0.900000 0.051826
5.922289 0.051220 0.052201 0.000245 0.900000 0.052202
6.027108 0.051220 0.047270 0.003030 0.900000 0.047367
6.131928 0.051220 0.041357 0.000262 0.900000 0.041358
6.236747 0.051220 0.046226 -0.003486 0.900000 0.046358
6.341566 0.051220 0.053161 -0.002216 0.900000 0.053208
6.446386 0.051220 0.048056 0.000758 0.900000 0.048062
6.551205 0.051220 0.045194 0.003327 0.900000 0.045316
6.656024 0.051220 0.047668 -0.000538 0.900000 0.047671
6.760843 0.051220 0.046161 -0.002927 0.900000 0.046254
6.865663 0.051220 0.045899 -0.001136 0.900000 0.045913
6.970482 0.051220 0.048965 0.001087 0.900000 0.048977
7.075301 0.051220 0.046268 0.002625 0.900000 0.046342
7.180120 0.051220 0.043510 0.001634 0.900000 0.043541
7.284940 0.051220 0.047314 -0.001616 0.900000 0.047342
7.389759 0.051220 0.049596 -0.002067 0.900000 0.049639
7.494578 0.051220 0.048607 0.000421 0.900000 0.048609
7.599398 0.051220 0.046258 0.001553 0.900000 0.046284
7.704217 0.051220 0.044071 0.001904 0.900000 0.044112
7.809036 0.051220 0.043945 0.000779 0.900000 0.043952
7.913855 0.051220 0.044479 -0.000291 0.900000 0.044480
8.018675 0.051220 0.044376 0.001834 0.900000 0.044414
8.123494 0.051220 0.041876 0.001014 0.900000 0.041888
8.228313 0.051220 0.036475 0.001238 0.900000 0.036496
8.333133 0.051220 0.029004 0.001556 0.900000 0.029046
8.437952 0.051220 0.019033 0.001773 0.900000 0.019115
8.542771 0.051220 0.006717 0.002354 0.900000 0.007117
8.647590 0.051220 0.000000 0.000000 0.000000 0.000000
0.052410 0.065854 0.000000 0.000000 0.000000 0.000000
0.157229 0.065854 -0.001851 -0.000884 0.900000 0.002051
0.262048 0.065854 -0.005422 -0.000988 0.900000 0.005511
0.366867 0.065854 -0.008287 -0.001270 0.900000 0.008384
0.471687 0.065854 -0.009644 -0.002247 0.900000 0.009902
0.576506 0.065854 -0.009098 -0.002216 0.900000 0.009364
0.681325 0.065854 -0.009015 0.001317 0.900000 0.009110
0.786145 0.065854 -0.010786 0.001297 0.900000 0.010864
0.890964 0.065854 -0.011851 -0.000363 0.900000 0.011857
0.995783 0.065854 -0.011804 0.001067 0.900000 0.011852
1.100602 0.065854 -0.012183 0.001968 0.900000 0.012341
1.205422 0.065854 -0.011081 0.001265 0.900000 0.011153
1.310241 0.065854 -0.007019 0.000498 0.900000 0.007036
1.415060 0.065854 -0.003502 0.002203 0.900000 0.004137
1.519880 0.065854 -0.003016 0.004748 0.900000 0.005625
1.624699 0.065854 -0.002520 0.004340 0.900000 0.005018
1.729518 0.065854 -0.000103 0.002461 0.900000 0.002463
1.834337 0.065854 0.001582 0.003325 0.900000 0.003682
1.939157 0.065854 0.000412 0.004489 0.900000 0.004508
2.043976 0.065854 0.000667 0.004394 0.900000 0.004445
2.148795 0.065854 0.004596 0.003083 0.900000 0.005535
2.253614 0.065854 0.007720 0.004625 0.900000 0.008999
2.358434 0.065854 0.006929 0.006968 0.900000 0.009827
2.463253 0.065854 0.005537 0.010067 0.900000 0.011489
2.568072 0.065854 0.007534 0.007391 0.900000 0.010554
2.672892 0.065854 0.013060 0.001313 0.900000 0.013126
2.777711 0.065854 0.017332 0.004287 0.900000 0.017855
2.882530 0.065854 0.020120 0.004903 0.900000 0.020709
2.987349 0.065854 0.022251 0.005747 0.900000 0.022981
3.092169 0.065854 0.020841 0.006632 0.900000 0.021871
3.196988 0.065854 0.015950 0.008346 0.900000 0.018001
3.301807 0.065854 0.015091 0.008937 0.900000 0.017539
3.406627 0.065854 0.017611 0.008687 0.900000 0.019637
3.511446 0.065854 0.018208 0.009725 0.900000 0.020642
3.616265 0.065854 0.017056 0.013960 0.900000 0.022040
3.721084 0.065854 0.013100 0.014799 0.900000 0.019764
3.825904 0.065854 0.017982 -0.000672 0.900000 0.017994
3.930723 0.065854 0.024513 -0.000469 0.900000 0.024518
4.035542 0.065854 0.026910 -0.001350 0.900000 0.026944
4.140361 0.065854 0.033934 -0.006135 0.900000 0.034484
4.245181 0.065854 0.037534 0.005981 0.900000 0.038008
4.350000 0.065854 0.036538 0.010571 0.900000 0.038037
4.454819 0.065854 0.037109 0.006951 0.900000 0.037755
4.559639 0.065854 0.035019 0.002139 0.900000 0.035084
4.664458 0.065854 0.029607 0.007106 0.900000 0.030448
4.769277 0.065854 0.024407 0.007281 0.900000 0.025470
4.874096 0.065854 0.019880 0.010627 0.900000 0.022543
4.978916 0.065854 0.015870 0.010480 0.900000 0.019018
5.083735 0.065854 0.020406 0.007647 0.900000 0.021792
5.188554 0.065854 0.033388 0.010183 0.900000 0.034907
5.293373 0.065854 0.039626 0.007199 0.900000 0.040275
5.398193 0.065854 0.038251 0.010783 0.900000 0.039742
5.503012 0.065854 0.037180 0.014393 0.900000 0.039869
5.607831 0.065854 0.039226 0.002661 0.900000 0.039316
5.712651 0.065854 0.044137 -0.007953 0.900000 0.044847
5.817470 0.065854 0.048848 -0.004482 0.900000 0.049053
5.922289 0.065854 0.048934 0.000163 0.900000 0.048934
6.027108 0.065854 0.045225 0.003698 0.900000 0.045376
6.131928 0.065854 0.040880 -0.000048 0.900000 0.040880
6.236747 0.065854 0.045283 -0.004120 0.900000 0.045470
6.341566 0.065854 0.050994 -0.002791 0.900000 0.051070
6.446386 0.065854 0.045673 0.000951 0.900000 0.045683
6.551205 0.065854 0.043676 0.004069 0.900000 0.043866
6.656024 0.065854 0.047279 -0.000694 0.900000 0.047284
6.760843 0.065854 0.045510 -0.003611 0.900000 0.045653
6.865663 0.065854 0.044288 -0.001171 0.900000 0.044303
6.970482 0.065854 0.047218 0.001386 0.900000 0.047238
7.075301 0.065854 0.045212 0.003407 0.900000 0.045340
7.180120 0.065854 0.044323 0.001652 0.900000 0.044354
7.284940 0.065854 0.047797 -0.002076 0.900000 0.047842
7.389759 0.065854 0.048365 -0.002044 0.900000 0.048409
7.494578 0.065854 0.047371 0.000823 0.900000 0.047378
7.599398 0.065854 0.045600 0.002045 0.900000 0.045646
7.704217 0.065854 0.043654 0.002470 0.900000 0.043723
7.809036 0.065854 0.043663 0.001146 0.900000 0.043678
7.913855 0.065854 0.044235 -0.000019 0.900000 0.044235
8.018675 0.065854 0.043918 0.002413 0.900000 0.043984
8.123494 0.065854 0.041508 0.001295 0.900000 0.041528
8.228313 0.065854 0.036207 0.001623 0.900000 0.036244
8.333133 0.065854 0.028876 0.002101 0.900000 0.028953
8.437952 0.065854 0.018996 0.002499 0.900000 0.019160
8.542771 0.065854 0.006683 0.003279 0.900000 0.007444
8.647590 0.065854 0.000000 0.000000 0.000000 0.000000
0.052410 0.080488 0.000000 0.000000 0.000000 0.000000
0.157229 0.080488 -0.001950 -0.001077 0.900000 0.002228
0.262048 0.080488 -0.005732 -0.001204 0.900000 0.005857
0.366867 0.080488 -0.008841 -0.001553 0.900000 0.008977
0.471687 0.080488 -0.010682 -0.002620 0.900000 0.010999
0.576506 0.080488 -0.010931 -0.002420 0.900000 0.011195
0.681325 0.080488 -0.011172 0.001345 0.900000 0.011253
0.786145 0.080488 -0.012605 0.001299 0.900000 0.012672
0.890964 0.080488 -0.013757 -0.000505 0.900000 0.013767
0.995783 0.080488 -0.014095 0.001142 0.900000 0.014141
1.100602 0.080488 -0.014517 0.002052 0.900000 0.014661
1.205422 0.080488 -0.013305 0.001269 0.900000 0.013366
1.310241 0.080488 -0.009526 0.000455 0.900000 0.009537
1.415060 0.080488 -0.006502 0.002427 0.900000 0.006940
1.519880 0.080488 -0.006168 0.005215 0.900000 0.008077
1.624699 0.080488 -0.005488 0.004906 0.900000 0.007361
1.729518 0.080488 -0.003259 0.002864 0.900000 0.004339
1.834337 0.080488 -0.002128 0.003734 0.900000 0.004298
1.939157 0.080488 -0.003496 0.004868 0.900000 0.005993
2.043976 0.080488 -0.003132 0.004788 0.900000 0.005722
2.148795 0.080488 0.000419 0.003192 0.900000 0.003220
2.253614 0.080488 0.002959 0.005302 0.900000 0.006072
2.358434 0.080488 0.002056 0.007921 0.900000 0.008184
2.463253 0.080488 0.001156 0.011565 0.900000 0.011623
2.568072 0.080488 0.004012 0.008117 0.900000 0.009054
2.672892 0.080488 0.009291 0.001501 0.900000 0.009412
2.777711 0.080488 0.012560 0.004518 0.900000 0.013348
2.882530 0.080488 0.014741 0.005531 0.900000 0.015744
2.987349 0.080488 0.016351 0.006460 0.900000 0.017581
3.092169 0.080488 0.014684 0.007710 0.900000 0.016585
3.196988 0.080488 0.009690 0.009520 0.900000 0.013584
3.301807 0.080488 0.008499 0.010185 0.900000 0.013265
3.406627 0.080488 0.010513 0.009708 0.900000 0.014309
3.511446 0.080488 0.010882 0.011176 0.900000 0.015599
3.616265 0.080488 0.010423 0.016054 0.900000 0.019141
3.721084 0.080488 0.008231 0.017329 0.900000 0.019184
3.825904 0.080488 0.015039 -0.001931 0.900000 0.015162
3.930723 0.080488 0.021975 -0.000088 0.900000 0.021975
4.035542 0.080488 0.023299 -0.002178 0.900000 0.023401
4.140361 0.080488 0.028032 -0.006794 0.900000 0.028844
4.245181 0.080488 0.030058 0.007126 0.900000 0.030891
4.350000 0.080488 0.029343 0.012571 0.900000 0.031923
4.454819 0.080488 0.031116 0.007152 0.900000 0.031927
4.559639 0.080488 0.029258 0.002839 0.900000 0.029395
4.664458 0.080488 0.022893 0.008207 0.900000 0.024319
4.769277 0.080488 0.017669 0.008447 0.900000 0.019584
4.874096 0.080488 0.013968 0.011946 0.900000 0.018379
4.978916 0.080488 0.011474 0.011697 0.900000 0.016385
5.083735 0.080488 0.016399 0.008361 0.900000 0.018407
5.188554 0.080488 0.028493 0.011313 0.900000 0.030657
5.293373 0.080488 0.033847 0.008983 0.900000 0.035018
5.398193 0.080488 0.033009 0.012877 0.900000 0.035432
5.503012 0.080488 0.034568 0.015803 0.900000 0.038009
5.607831 0.080488 0.038799 0.002670 0.900000 0.038891
5.712651 0.080488 0.043257 -0.009048 0.900000 0.044193
5.817470 0.080488 0.046405 -0.005061 0.900000 0.046681
5.922289 0.080488 0.046166 0.000048 0.900000 0.046166
6.027108 0.080488 0.043537 0.004108 0.900000 0.043730
6.131928 0.080488 0.040442 -0.000401 0.900000 0.040444
6.236747 0.080488 0.044404 -0.004504 0.900000 0.044631
6.341566 0.080488 0.049110 -0.003181 0.900000 0.049213
6.446386 0.080488 0.043674 0.001023 0.900000 0.043686
6.551205 0.080488 0.042413 0.004481 0.900000 0.042649
6.656024 0.080488 0.046912 -0.000865 0.900000 0.046920
6.760843 0.080488 0.044923 -0.004131 0.900000 0.045112
6.865663 0.080488 0.042921 -0.001172 0.900000 0.042937
6.970482 0.080488 0.045747 0.001598 0.900000 0.045774
7.075301 0.080488 0.044480 0.003807 0.900000 0.044643
7.180120 0.080488 0.044228 0.001447 0.900000 0.044252
7.284940 0.080488 0.047234 -0.002275 0.900000 0.047289
7.389759 0.080488 0.047267 -0.001829 0.900000 0.047302
7.494578 0.080488 0.046377 0.001109 0.900000 0.046391
7.599398 0.080488 0.044862 0.002407 0.900000 0.044926
7.704217 0.080488 0.043075 0.002923 0.900000 0.043174
7.809036 0.080488 0.043442 0.001382 0.900000 0.043464
7.913855 0.080488 0.044083 0.000244 0.900000 0.044083
8.018675 0.080488 0.043524 0.002809 0.900000 0.043614
8.123494 0.080488 0.041153 0.001487 0.900000 0.041180
8.228313 0.080488 0.035951 0.001961 0.900000 0.036005
8.333133 0.080488 0.028770 0.002608 0.900000 0.028888
8.437952 0.080488 0.018980 0.003235 0.900000 0.019254
8.542771 0.080488 0.006666 0.004200 0.900000 0.007879
8.647590 0.080488 0.000000 0.000000 0.000000 0.000000
0.052410 0.095122 0.000000 0.000000 0.000000 0.000000
0.157229 0.095122 -0.002050 -0.001244 0.900000 0.002398
0.262048 0.095122 -0.006042 -0.001389 0.900000 0.006200
0.366867 0.095122 -0.009400 -0.001796 0.900000 0.009570
0.471687 0.095122 -0.011680 -0.002896 0.900000 0.012034
0.576506 0.095122 -0.012560 -0.002521 0.900000 0.012811
0.681325 0.095122 -0.013017 0.001347 0.900000 0.013086
0.786145 0.095122 -0.014190 0.001211 0.900000 0.014242
0.890964 0.095122 -0.015411 -0.000596 0.900000 0.015422
0.995783 0.095122 -0.016054 0.001138 0.900000 0.016094
1.100602 0.095122 -0.016515 0.002046 0.900000 0.016641
1.205422 0.095122 -0.015235 0.001143 0.900000 0.015277
1.310241 0.095122 -0.011712 0.000372 0.900000 0.011718
1.415060 0.095122 -0.009106 0.002508 0.900000 0.009445
1.519880 0.095122 -0.008907 0.005463 0.900000 0.010449
1.624699 0.095122 -0.008101 0.005231 0.900000 0.009643
1.729518 0.095122 -0.006042 0.003164 0.900000 0.006820
1.834337 0.095122 -0.005366 0.003966 0.900000 0.006673
1.939157 0.095122 -0.006899 0.005056 0.900000 0.008553
2.043976 0.095122 -0.006502 0.004910 0.900000 0.008148
2.148795 0.095122 -0.003308 0.003260 0.900000 0.004644
2.253614 0.095122 -0.001249 0.005748 0.900000 0.005882
2.358434 0.095122 -0.002202 0.008635 0.900000 0.008912
2.463253 0.095122 -0.002669 0.012588 0.900000 0.012868
2.568072 0.095122 0.000868 0.008573 0.900000 0.008617
2.672892 0.095122 0.005944 0.001629 0.900000 0.006164
2.777711 0.095122 0.008345 0.004636 0.900000 0.009546
2.882530 0.095122 0.009953 0.005872 0.900000 0.011556
2.987349 0.095122 0.011101 0.007042 0.900000 0.013146
3.092169 0.095122 0.009228 0.008475 0.900000 0.012529
3.196988 0.095122 0.004141 0.010435 0.900000 0.011226
3.301807 0.095122 0.002618 0.010938 0.900000 0.011247
3.406627 0.095122 0.004179 0.010429 0.900000 0.011236
3.511446 0.095122 0.004377 0.012090 0.900000 0.012858
3.616265 0.095122 0.004598 0.017637 0.900000 0.018227
3.721084 0.095122 0.003745 0.019277 0.900000 0.019637
3.825904 0.095122 0.012233 -0.003468 0.900000 0.012715
3.930723 0.095122 0.019794 0.000284 0.900000 0.019796
4.035542 0.095122 0.020139 -0.002659 0.900000 0.020314
4.140361 0.095122 0.022866 -0.007243 0.900000 0.023985
4.245181 0.095122 0.023479 0.008039 0.900000 0.024817
4.350000 0.095122 0.022778 0.014162 0.900000 0.026822
4.454819 0.095122 0.025661 0.006818 0.900000 0.026551
4.559639 0.095122 0.024172 0.003477 0.900000 0.024421
4.664458 0.095122 0.016931 0.009088 0.900000 0.019216
4.769277 0.095122 0.011687 0.009172 0.900000 0.014856
4.874096 0.095122 0.008730 0.012798 0.900000 0.015492
4.978916 0.095122 0.007611 0.012278 0.900000 0.014445
5.083735 0.095122 0.012710 0.008789 0.900000 0.015453
5.188554 0.095122 0.023898 0.012015 0.900000 0.026749
5.293373 0.095122 0.029145 0.010429 0.900000 0.030954
5.398193 0.095122 0.029027 0.014315 0.900000 0.032365