TITLE="(Vx,Vy)"
VARIABLES=X,Y,Vx,Vy,Vm,V
ZONE T="T-Dummy" I=83, J=41, F=POINT
0.052410 0.007317 0.000000 0.000000 0.000000 0.000000
0.157229 0.007317 0.000000 0.000000 0.000000 0.000000
0.262048 0.007317 0.000000 0.000000 0.000000 0.000000
0.366867 0.007317 0.000000 0.000000 0.000000 0.000000
0.471687 0.007317 0.000000 0.000000 0.000000 0.000000
0.576506 0.007317 0.000000 0.000000 0.000000 0.000000
0.681325 0.007317 0.000000 0.000000 0.000000 0.000000
0.786145 0.007317 0.000000 0.000000 0.000000 0.000000
0.890964 0.007317 0.000000 0.000000 0.000000 0.000000
0.995783 0.007317 0.000000 0.000000 0.000000 0.000000
1.100602 0.007317 0.000000 0.000000 0.000000 0.000000
1.205422 0.007317 0.000000 0.000000 0.000000 0.000000
1.310241 0.007317 0.000000 0.000000 0.000000 0.000000
1.415060 0.007317 0.000000 0.000000 0.000000 0.000000
1.519880 0.007317 0.000000 0.000000 0.000000 0.000000
1.624699 0.007317 0.000000 0.000000 0.000000 0.000000
1.729518 0.007317 0.000000 0.000000 0.000000 0.000000
1.834337 0.007317 0.000000 0.000000 0.000000 0.000000
1.939157 0.007317 0.000000 0.000000 0.000000 0.000000
2.043976 0.007317 0.000000 0.000000 0.000000 0.000000
2.148795 0.007317 0.000000 0.000000 0.000000 0.000000
2.253614 0.007317 0.000000 0.000000 0.000000 0.000000
2.358434 0.007317 0.000000 0.000000 0.000000 0.000000
2.463253 0.007317 0.000000 0.000000 0.000000 0.000000
2.568072 0.007317 0.000000 0.000000 0.000000 0.000000
2.672892 0.007317 0.000000 0.000000 0.000000 0.000000
2.777711 0.007317 0.000000 0.000000 0.000000 0.000000
2.882530 0.007317 0.000000 0.000000 0.000000 0.000000
2.987349 0.007317 0.000000 0.000000 0.000000 0.000000
3.092169 0.007317 0.000000 0.000000 0.000000 0.000000
3.196988 0.007317 0.000000 0.000000 0.000000 0.000000
3.301807 0.007317 0.000000 0.000000 0.000000 0.000000
3.406627 0.007317 0.000000 0.000000 0.000000 0.000000
3.511446 0.007317 0.000000 0.000000 0.000000 0.000000
3.616265 0.007317 0.000000 0.000000 0.000000 0.000000
3.721084 0.007317 0.000000 0.000000 0.000000 0.000000
3.825904 0.007317 0.000000 0.000000 0.000000 0.000000
3.930723 0.007317 0.000000 0.000000 0.000000 0.000000
4.035542 0.007317 0.000000 0.000000 0.000000 0.000000
4.140361 0.007317 0.000000 0.000000 0.000000 0.000000
4.245181 0.007317 0.000000 0.000000 0.000000 0.000000
4.350000 0.007317 0.000000 0.000000 0.000000 0.000000
4.454819 0.007317 0.000000 0.000000 0.000000 0.000000
4.559639 0.007317 0.000000 0.000000 0.000000 0.000000
4.664458 0.007317 0.000000 0.000000 0.000000 0.000000
4.769277 0.007317 0.000000 0.000000 0.000000 0.000000
4.874096 0.007317 0.000000 0.000000 0.000000 0.000000
4.978916 0.007317 0.000000 0.000000 0.000000 0.000000
5.083735 0.007317 0.000000 0.000000 0.000000 0.000000
5.188554 0.007317 0.000000 0.000000 0.000000 0.000000
5.293373 0.007317 0.000000 0.000000 0.000000 0.000000
5.398193 0.007317 0.000000 0.000000 0.000000 0.000000
5.503012 0.007317 0.000000 0.000000 0.000000 0.000000
5.607831 0.007317 0.000000 0.000000 0.000000 0.000000
5.712651 0.007317 0.000000 0.000000 0.000000 0.000000
5.817470 0.007317 0.000000 0.000000 0.000000 0.000000
5.922289 0.007317 0.000000 0.000000 0.000000 0.000000
6.027108 0.007317 0.000000 0.000000 0.000000 0.000000
6.131928 0.007317 0.000000 0.000000 0.000000 0.000000
6.236747 0.007317 0.000000 0.000000 0.000000 0.000000
6.341566 0.007317 0.000000 0.000000 0.000000 0.000000
6.446386 0.007317 0.000000 0.000000 0.000000 0.000000
6.551205 0.007317 0.000000 0.000000 0.000000 0.000000
6.656024 0.007317 0.000000 0.000000 0.000000 0.000000
6.760843 0.007317 0.000000 0.000000 0.000000 0.000000
6.865663 0.007317 0.000000 0.000000 0.000000 0.000000
6.970482 0.007317 0.000000 0.000000 0.000000 0.000000
7.075301 0.007317 0.000000 0.000000 0.000000 0.000000
7.180120 0.007317 0.000000 0.000000 0.000000 0.000000
7.284940 0.007317 0.000000 0.000000 0.000000 0.000000
7.389759 0.007317 0.000000 0.000000 0.000000 0.000000
7.494578 0.007317 0.000000 0.000000 0.000000 0.000000
7.599398 0.007317 0.000000 0.000000 0.000000 0.000000
7.704217 0.007317 0.000000 0.000000 0.000000 0.000000
7.809036 0.007317 0.000000 0.000000 0.000000 0.000000
7.913855 0.007317 0.000000 0.000000 0.000000 0.000000
8.018675 0.007317 0.000000 0.000000 0.000000 0.000000
8.123494 0.007317 0.000000 0.000000 0.000000 0.000000
8.228313 0.007317 0.000000 0.000000 0.000000 0.000000
8.333133 0.007317 0.000000 0.000000 0.000000 0.000000
8.437952 0.007317 0.000000 0.000000 0.000000 0.000000
8.542771 0.007317 0.000000 0.000000 0.000000 0.000000
8.647590 0.007317 0.000000 0.000000 0.000000 0.000000
0.052410 0.021951 0.000000 0.000000 0.000000 0.000000
0.157229 0.021951 -0.003425 0.000307 0.900000 0.003438
0.262048 0.021951 -0.008941 0.000207 0.900000 0.008943
0.366867 0.021951 -0.012142 0.000127 0.900000 0.012143
0.471687 0.021951 -0.013516 0.000073 0.900000 0.013516
0.576506 0.021951 -0.011134 -0.000272 0.900000 0.011137
0.681325 0.021951 -0.003255 -0.000370 0.900000 0.003276
0.786145 0.021951 0.001758 0.000134 0.900000 0.001763
0.890964 0.021951 0.000300 0.000045 0.900000 0.000304
0.995783 0.021951 -0.000523 -0.000071 0.900000 0.000528
1.100602 0.021951 -0.000674 -0.000265 0.900000 0.000724
1.205422 0.021951 0.000293 -0.000167 0.900000 0.000338
1.310241 0.021951 0.000640 -0.000339 0.900000 0.000724
1.415060 0.021951 0.000294 -0.000229 0.900000 0.000373
1.519880 0.021951 0.000554 0.000091 0.900000 0.000561
1.624699 0.021951 0.001709 -0.000330 0.900000 0.001741
1.729518 0.021951 0.003758 -0.000439 0.900000 0.003784
1.834337 0.021951 0.004073 -0.000335 0.900000 0.004087
1.939157 0.021951 0.002548 -0.000314 0.900000 0.002567
2.043976 0.021951 0.001836 -0.000288 0.900000 0.001858
2.148795 0.021951 0.003485 -0.000310 0.900000 0.003499
2.253614 0.021951 0.005568 -0.000034 0.900000 0.005568
2.358434 0.021951 0.008183 -0.000219 0.900000 0.008186
2.463253 0.021951 0.007478 0.000773 0.900000 0.007518
2.568072 0.021951 0.006088 -0.000750 0.900000 0.006134
2.672892 0.021951 0.006816 -0.000103 0.900000 0.006817
2.777711 0.021951 0.009525 -0.000608 0.900000 0.009545
2.882530 0.021951 0.008902 0.000588 0.900000 0.008922
2.987349 0.021951 0.019904 -0.001264 0.900000 0.019944
3.092169 0.021951 0.028447 0.001766 0.900000 0.028501
3.196988 0.021951 0.025408 0.000584 0.900000 0.025414
3.301807 0.021951 0.029993 0.000716 0.900000 0.030001
3.406627 0.021951 0.039533 0.000107 0.900000 0.039533
3.511446 0.021951 0.038680 0.002100 0.900000 0.038737
3.616265 0.021951 0.029419 0.000700 0.900000 0.029428
3.721084 0.021951 0.020984 0.000774 0.900000 0.020998
3.825904 0.021951 0.006732 0.000757 0.900000 0.006774
3.930723 0.021951 -0.001395 0.001306 0.900000 0.001911
4.035542 0.021951 0.000677 0.000907 0.900000 0.001132
4.140361 0.021951 0.004454 0.001919 0.900000 0.004850
4.245181 0.021951 0.005837 0.000937 0.900000 0.005912
4.350000 0.021951 0.007781 0.001216 0.900000 0.007876
4.454819 0.021951 0.010815 0.001119 0.900000 0.010873
4.559639 0.021951 0.012803 0.001607 0.900000 0.012903
4.664458 0.021951 0.002583 0.002677 0.900000 0.003720
4.769277 0.021951 -0.004271 0.000015 0.900000 0.004271
4.874096 0.021951 -0.000415 0.000312 0.900000 0.000519
4.978916 0.021951 0.000691 -0.000148 0.900000 0.000706
5.083735 0.021951 0.000743 0.000999 0.900000 0.001245
5.188554 0.021951 0.002530 -0.000221 0.900000 0.002540
5.293373 0.021951 0.004095 -0.000097 0.900000 0.004096
5.398193 0.021951 0.006804 -0.000591 0.900000 0.006829
5.503012 0.021951 0.007368 0.000534 0.900000 0.007388
5.607831 0.021951 0.007043 -0.000097 0.900000 0.007044
5.712651 0.021951 0.007901 0.000172 0.900000 0.007903
5.817470 0.021951 0.007809 0.001088 0.900000 0.007884
5.922289 0.021951 0.009738 0.000295 0.900000 0.009742
6.027108 0.021951 0.008887 0.000700 0.900000 0.008914
6.131928 0.021951 0.003382 -0.000184 0.900000 0.003387
6.236747 0.021951 -0.003160 -0.000428 0.900000 0.003189
6.341566 0.021951 -0.006799 -0.000717 0.900000 0.006837
6.446386 0.021951 -0.009615 0.000112 0.900000 0.009616
6.551205 0.021951 -0.011987 -0.000165 0.900000 0.011988
6.656024 0.021951 -0.010050 -0.000146 0.900000 0.010052
6.760843 0.021951 -0.008436 0.000292 0.900000 0.008441
6.865663 0.021951 -0.006554 0.000219 0.900000 0.006558
6.970482 0.021951 -0.010382 0.001819 0.900000 0.010540
7.075301 0.021951 -0.011315 -0.000280 0.900000 0.011319
7.180120 0.021951 -0.005316 -0.000180 0.900000 0.005319
7.284940 0.021951 -0.006330 -0.000321 0.900000 0.006338
7.389759 0.021951 -0.010288 0.000147 0.900000 0.010289
7.494578 0.021951 -0.012968 -0.000039 0.900000 0.012968
7.599398 0.021951 -0.013840 0.000010 0.900000 0.013840
7.704217 0.021951 -0.015217 0.000031 0.900000 0.015217
7.809036 0.021951 -0.017036 0.000080 0.900000 0.017036
7.913855 0.021951 -0.016051 0.000205 0.900000 0.016053
8.018675 0.021951 -0.014421 0.000535 0.900000 0.014431
8.123494 0.021951 -0.015807 0.000474 0.900000 0.015814
8.228313 0.021951 -0.014760 0.000064 0.900000 0.014760
8.333133 0.021951 -0.011082 -0.000066 0.900000 0.011082
8.437952 0.021951 -0.007075 -0.000000 0.900000 0.007075
8.542771 0.021951 -0.002518 0.000055 0.900000 0.002518
8.647590 0.021951 0.000000 0.000000 0.000000 0.000000
0.052410 0.036585 0.000000 0.000000 0.000000 0.000000
0.157229 0.036585 -0.003380 0.000918 0.900000 0.003503
0.262048 0.036585 -0.008872 0.000624 0.900000 0.008894
0.366867 0.036585 -0.012020 0.000365 0.900000 0.012026
0.471687 0.036585 -0.013467 0.000231 0.900000 0.013469
0.576506 0.036585 -0.012833 -0.000593 0.900000 0.012846
0.681325 0.036585 -0.008860 -0.000518 0.900000 0.008876
0.786145 0.036585 -0.005917 0.000435 0.900000 0.005933
0.890964 0.036585 -0.006566 0.000103 0.900000 0.006567
0.995783 0.036585 -0.007366 -0.000029 0.900000 0.007366
1.100602 0.036585 -0.009504 -0.000525 0.900000 0.009519
1.205422 0.036585 -0.010568 -0.000247 0.900000 0.010571
1.310241 0.036585 -0.012201 -0.000704 0.900000 0.012221
1.415060 0.036585 -0.013339 -0.000491 0.900000 0.013348
1.519880 0.036585 -0.008879 -0.000014 0.900000 0.008879
1.624699 0.036585 -0.004226 -0.000644 0.900000 0.004275
1.729518 0.036585 -0.004474 -0.000866 0.900000 0.004557
1.834337 0.036585 -0.009870 -0.000205 0.900000 0.009872
1.939157 0.036585 -0.013613 -0.001009 0.900000 0.013650
2.043976 0.036585 -0.014344 -0.000465 0.900000 0.014352
2.148795 0.036585 -0.016083 -0.000579 0.900000 0.016093
2.253614 0.036585 -0.016313 0.000182 0.900000 0.016314
2.358434 0.036585 -0.014310 -0.000534 0.900000 0.014320
2.463253 0.036585 -0.007957 0.001546 0.900000 0.008105
2.568072 0.036585 -0.006672 -0.001594 0.900000 0.006860
2.672892 0.036585 -0.012206 0.000248 0.900000 0.012209
2.777711 0.036585 -0.014079 -0.001241 0.900000 0.014134
2.882530 0.036585 -0.015500 0.001996 0.900000 0.015628
2.987349 0.036585 -0.003006 -0.003267 0.900000 0.004439
3.092169 0.036585 0.012980 0.003309 0.900000 0.013395
3.196988 0.036585 0.016088 0.001026 0.900000 0.016121
3.301807 0.036585 0.016690 0.001336 0.900000 0.016743
3.406627 0.036585 0.016478 -0.000145 0.900000 0.016478
3.511446 0.036585 0.010351 0.004019 0.900000 0.011103
3.616265 0.036585 -0.001108 0.001209 0.900000 0.001640
3.721084 0.036585 -0.020055 0.001554 0.900000 0.020115
3.825904 0.036585 -0.043094 0.001373 0.900000 0.043116
3.930723 0.036585 -0.055926 0.002777 0.900000 0.055994
4.035542 0.036585 -0.054732 0.000903 0.900000 0.054740
4.140361 0.036585 -0.042352 0.002773 0.900000 0.042443
4.245181 0.036585 -0.037153 0.001518 0.900000 0.037184
4.350000 0.036585 -0.040082 0.002232 0.900000 0.040144
4.454819 0.036585 -0.045793 0.002213 0.900000 0.045846
4.559639 0.036585 -0.045674 0.002074 0.900000 0.045721
4.664458 0.036585 -0.040005 0.004711 0.900000 0.040281
4.769277 0.036585 -0.039614 -0.000127 0.900000 0.039614
4.874096 0.036585 -0.039379 0.001178 0.900000 0.039397
4.978916 0.036585 -0.041046 -0.000413 0.900000 0.041048
5.083735 0.036585 -0.033663 0.001678 0.900000 0.033705
5.188554 0.036585 -0.026213 -0.000033 0.900000 0.026213
5.293373 0.036585 -0.030512 -0.000121 0.900000 0.030513
5.398193 0.036585 -0.037802 -0.000780 0.900000 0.037810
5.503012 0.036585 -0.040383 0.000894 0.900000 0.040393
5.607831 0.036585 -0.038212 0.000115 0.900000 0.038212
5.712651 0.036585 -0.040410 0.000417 0.900000 0.040412
5.817470 0.036585 -0.031217 0.002055 0.900000 0.031285
5.922289 0.036585 -0.016979 0.000639 0.900000 0.016991
6.027108 0.036585 -0.009282 0.001577 0.900000 0.009415
6.131928 0.036585 -0.010672 -0.000120 0.900000 0.010673
6.236747 0.036585 -0.022782 -0.000793 0.900000 0.022795
6.341566 0.036585 -0.035131 -0.001423 0.900000 0.035159
6.446386 0.036585 -0.041041 0.000152 0.900000 0.041041
6.551205 0.036585 -0.042250 -0.000420 0.900000 0.042252
6.656024 0.036585 -0.042908 -0.000167 0.900000 0.042908
6.760843 0.036585 -0.041675 0.000485 0.900000 0.041678
6.865663 0.036585 -0.037641 0.000639 0.900000 0.037646
6.970482 0.036585 -0.033426 0.004474 0.900000 0.033724
7.075301 0.036585 -0.022447 -0.001473 0.900000 0.022495
7.180120 0.036585 -0.012879 -0.000355 0.900000 0.012884
7.284940 0.036585 -0.016831 -0.000642 0.900000 0.016843
7.389759 0.036585 -0.022673 0.000572 0.900000 0.022680
7.494578 0.036585 -0.026942 0.000083 0.900000 0.026942
7.599398 0.036585 -0.029536 0.000036 0.900000 0.029536
7.704217 0.036585 -0.033062 0.000248 0.900000 0.033063
7.809036 0.036585 -0.037463 0.000352 0.900000 0.037465
7.913855 0.036585 -0.040529 0.001162 0.900000 0.040546
8.018675 0.036585 -0.032954 0.000291 0.900000 0.032955
8.123494 0.036585 -0.020442 0.000708 0.900000 0.020454
8.228313 0.036585 -0.014416 0.000184 0.900000 0.014418
8.333133 0.036585 -0.010799 -0.000196 0.900000 0.010801
8.437952 0.036585 -0.006845 0.000010 0.900000 0.006845
8.542771 0.036585 -0.002436 0.000177 0.900000 0.002442
8.647590 0.036585 0.000000 0.000000 0.000000 0.000000
0.052410 0.051220 0.000000 0.000000 0.000000 0.000000
0.157229 0.051220 -0.003346 0.001521 0.900000 0.003676
0.262048 0.051220 -0.008816 0.001048 0.900000 0.008878
0.366867 0.051220 -0.011898 0.000571 0.900000 0.011912
0.471687 0.051220 -0.013353 0.000415 0.900000 0.013360
0.576506 0.051220 -0.012681 -0.000706 0.900000 0.012701
0.681325 0.051220 -0.008989 -0.000066 0.900000 0.008989
0.786145 0.051220 -0.006304 0.000586 0.900000 0.006331
0.890964 0.051220 -0.006589 0.000183 0.900000 0.006592
0.995783 0.051220 -0.007374 0.000212 0.900000 0.007377
1.100602 0.051220 -0.009333 -0.000480 0.900000 0.009346
1.205422 0.051220 -0.010366 -0.000020 0.900000 0.010366
1.310241 0.051220 -0.011943 -0.000715 0.900000 0.011965
1.415060 0.051220 -0.013201 -0.000479 0.900000 0.013210
1.519880 0.051220 -0.009048 -0.000291 0.900000 0.009053
1.624699 0.051220 -0.004310 -0.000584 0.900000 0.004349
1.729518 0.051220 -0.004420 -0.000734 0.900000 0.004481
1.834337 0.051220 -0.010059 0.000805 0.900000 0.010091
1.939157 0.051220 -0.013703 -0.001715 0.900000 0.013810
2.043976 0.051220 -0.014327 -0.000184 0.900000 0.014329
2.148795 0.051220 -0.016500 -0.000330 0.900000 0.016503
2.253614 0.051220 -0.016894 0.000706 0.900000 0.016909
2.358434 0.051220 -0.014982 -0.000554 0.900000 0.014992
2.463253 0.051220 -0.008408 0.001537 0.900000 0.008548
2.568072 0.051220 -0.006455 -0.001683 0.900000 0.006671
2.672892 0.051220 -0.011563 0.001184 0.900000 0.011623
2.777711 0.051220 -0.013319 -0.000991 0.900000 0.013356
2.882530 0.051220 -0.014876 0.003739 0.900000 0.015339
2.987349 0.051220 -0.002607 -0.004556 0.900000 0.005249
3.092169 0.051220 0.013158 0.002926 0.900000 0.013479
3.196988 0.051220 0.015874 0.000748 0.900000 0.015891
3.301807 0.051220 0.016165 0.001284 0.900000 0.016216
3.406627 0.051220 0.009993 0.000098 0.900000 0.009994
3.511446 0.051220 0.004334 0.003259 0.900000 0.005422
3.616265 0.051220 -0.001128 0.000893 0.900000 0.001439
3.721084 0.051220 -0.020908 0.001599 0.900000 0.020969
3.825904 0.051220 -0.046442 0.001412 0.900000 0.046464
3.930723 0.051220 -0.057902 0.002638 0.900000 0.057962
4.035542 0.051220 -0.054092 -0.000789 0.900000 0.054098
4.140361 0.051220 -0.042985 0.000820 0.900000 0.042993
4.245181 0.051220 -0.038424 0.000890 0.900000 0.038434
4.350000 0.051220 -0.041208 0.001993 0.900000 0.041256
4.454819 0.051220 -0.045673 0.001983 0.900000 0.045716
4.559639 0.051220 -0.046299 0.000188 0.900000 0.046299
4.664458 0.051220 -0.041677 0.003308 0.900000 0.041808
4.769277 0.051220 -0.040124 -0.000093 0.900000 0.040124
4.874096 0.051220 -0.039288 0.001968 0.900000 0.039337
4.978916 0.051220 -0.041284 -0.000537 0.900000 0.041287
5.083735 0.051220 -0.034684 0.001142 0.900000 0.034703
5.188554 0.051220 -0.026911 0.000894 0.900000 0.026926
5.293373 0.051220 -0.030751 -0.000052 0.900000 0.030751
5.398193 0.051220 -0.037936 -0.000040 0.900000 0.037936
5.503012 0.051220 -0.040827 0.000557 0.900000 0.040831
5.607831 0.051220 -0.038770 0.000592 0.900000 0.038775
5.712651 0.051220 -0.040838 0.000200 0.900000 0.040839
5.817470 0.051220 -0.032075 0.001915 0.900000 0.032132
5.922289 0.051220 -0.017755 0.000643 0.900000 0.017767
6.027108 0.051220 -0.009604 0.001869 0.900000 0.009784
6.131928 0.051220 -0.011042 0.000094 0.900000 0.011043
6.236747 0.051220 -0.022965 -0.000748 0.900000 0.022977
6.341566 0.051220 -0.034728 -0.001480 0.900000 0.034759
6.446386 0.051220 -0.040787 0.000067 0.900000 0.040787
6.551205 0.051220 -0.042130 -0.000666 0.900000 0.042136
6.656024 0.051220 -0.042815 0.000096 0.900000 0.042815
6.760843 0.051220 -0.041595 0.000218 0.900000 0.041595
6.865663 0.051220 -0.037264 0.001020 0.900000 0.037278
6.970482 0.051220 -0.027209 0.005327 0.900000 0.027726
7.075301 0.051220 -0.016451 -0.002505 0.900000 0.016641
7.180120 0.051220 -0.013007 -0.000372 0.900000 0.013013
7.284940 0.051220 -0.016824 -0.000710 0.900000 0.016839
7.389759 0.051220 -0.022676 0.001145 0.900000 0.022705
7.494578 0.051220 -0.027057 0.000371 0.900000 0.027060
7.599398 0.051220 -0.029466 0.000055 0.900000 0.029466
7.704217 0.051220 -0.032931 0.000607 0.900000 0.032937
7.809036 0.051220 -0.037076 0.000698 0.900000 0.037082
7.913855 0.051220 -0.039374 0.002582 0.900000 0.039458
8.018675 0.051220 -0.031872 -0.001202 0.900000 0.031894
8.123494 0.051220 -0.020048 0.000241 0.900000 0.020050
8.228313 0.051220 -0.014149 0.000278 0.900000 0.014152
8.333133 0.051220 -0.010489 -0.000328 0.900000 0.010495
8.437952 0.051220 -0.006585 0.000040 0.900000 0.006585
8.542771 0.051220 -0.002345 0.000326 0.900000 0.002367
8.647590 0.051220 0.000000 0.000000 0.000000 0.000000
0.052410 0.065854 0.000000 0.000000 0.000000 0.000000
0.157229 0.065854 -0.003339 0.002123 0.900000 0.003957
0.262048 0.065854 -0.008785 0.001478 0.900000 0.008908
0.366867 0.065854 -0.011846 0.000760 0.900000 0.011870
0.471687 0.065854 -0.013250 0.000617 0.900000 0.013264
0.576506 0.065854 -0.012578 -0.000828 0.900000 0.012605
0.681325 0.065854 -0.009296 0.000416 0.900000 0.009305
0.786145 0.065854 -0.006880 0.000522 0.900000 0.006900
0.890964 0.065854 -0.007016 0.000385 0.900000 0.007027
0.995783 0.065854 -0.007645 0.000440 0.900000 0.007658
1.100602 0.065854 -0.009297 -0.000342 0.900000 0.009303
1.205422 0.065854 -0.010321 0.000291 0.900000 0.010325
1.310241 0.065854 -0.011875 -0.000610 0.900000 0.011891
1.415060 0.065854 -0.013120 -0.000346 0.900000 0.013124
1.519880 0.065854 -0.009046 -0.000341 0.900000 0.009053
1.624699 0.065854 -0.004289 -0.000466 0.900000 0.004314
1.729518 0.065854 -0.004240 -0.000397 0.900000 0.004258
1.834337 0.065854 -0.010161 0.001988 0.900000 0.010354
1.939157 0.065854 -0.013776 -0.002349 0.900000 0.013975
2.043976 0.065854 -0.014107 0.000208 0.900000 0.014109
2.148795 0.065854 -0.016643 0.000256 0.900000 0.016644
2.253614 0.065854 -0.017163 0.001274 0.900000 0.017210
2.358434 0.065854 -0.015259 -0.000224 0.900000 0.015261
2.463253 0.065854 -0.008720 0.001547 0.900000 0.008856
2.568072 0.065854 -0.006589 -0.001496 0.900000 0.006757
2.672892 0.065854 -0.011253 0.002155 0.900000 0.011458
2.777711 0.065854 -0.012723 -0.000107 0.900000 0.012723
2.882530 0.065854 -0.014749 0.005735 0.900000 0.015825
2.987349 0.065854 -0.003054 -0.005456 0.900000 0.006253
3.092169 0.065854 0.012793 0.002615 0.900000 0.013058
3.196988 0.065854 0.015125 0.000565 0.900000 0.015135
3.301807 0.065854 0.014734 0.001451 0.900000 0.014805
3.406627 0.065854 0.009774 0.001239 0.900000 0.009852
3.511446 0.065854 0.005090 0.002654 0.900000 0.005740
3.616265 0.065854 -0.000835 0.000670 0.900000 0.001071
3.721084 0.065854 -0.021019 0.001773 0.900000 0.021093
3.825904 0.065854 -0.047798 0.001914 0.900000 0.047836
3.930723 0.065854 -0.057779 0.001724 0.900000 0.057805
4.035542 0.065854 -0.052252 -0.002138 0.900000 0.052296
4.140361 0.065854 -0.042420 -0.000779 0.900000 0.042427
4.245181 0.065854 -0.038316 0.000413 0.900000 0.038318
4.350000 0.065854 -0.040823 0.001887 0.900000 0.040867
4.454819 0.065854 -0.044255 0.001513 0.900000 0.044281
4.559639 0.065854 -0.045232 -0.001090 0.900000 0.045245
4.664458 0.065854 -0.042284 0.001884 0.900000 0.042326
4.769277 0.065854 -0.040767 0.000589 0.900000 0.040771
4.874096 0.065854 -0.039709 0.002215 0.900000 0.039771
4.978916 0.065854 -0.041615 -0.000521 0.900000 0.041618
5.083735 0.065854 -0.035029 0.000741 0.900000 0.035037
5.188554 0.065854 -0.027131 0.002008 0.900000 0.027206
5.293373 0.065854 -0.030784 -0.000112 0.900000 0.030784
5.398193 0.065854 -0.037820 0.000558 0.900000 0.037824
5.503012 0.065854 -0.040853 0.000218 0.900000 0.040853
5.607831 0.065854 -0.038854 0.000800 0.900000 0.038862
5.712651 0.065854 -0.040647 -0.000445 0.900000 0.040649
5.817470 0.065854 -0.032280 0.001897 0.900000 0.032336
5.922289 0.065854 -0.018063 0.000436 0.900000 0.018068
6.027108 0.065854 -0.009714 0.002015 0.900000 0.009921
6.131928 0.065854 -0.011500 -0.000245 0.900000 0.011502
6.236747 0.065854 -0.023299 -0.000866 0.900000 0.023315
6.341566 0.065854 -0.034681 -0.001691 0.900000 0.034722
6.446386 0.065854 -0.040737 0.000037 0.900000 0.040737
6.551205 0.065854 -0.042071 -0.001013 0.900000 0.042083
6.656024 0.065854 -0.042691 0.000335 0.900000 0.042692
6.760843 0.065854 -0.041317 -0.000177 0.900000 0.041318
6.865663 0.065854 -0.036389 0.001285 0.900000 0.036412
6.970482 0.065854 -0.020102 0.004551 0.900000 0.020611
7.075301 0.065854 -0.009968 -0.001921 0.900000 0.010151
7.180120 0.065854 -0.013024 -0.000436 0.900000 0.013031
7.284940 0.065854 -0.016694 -0.000925 0.900000 0.016720
7.389759 0.065854 -0.022518 0.001764 0.900000 0.022587
7.494578 0.065854 -0.027057 0.000578 0.900000 0.027064
7.599398 0.065854 -0.029214 0.000071 0.900000 0.029214
7.704217 0.065854 -0.032548 0.000921 0.900000 0.032561
7.809036 0.065854 -0.036239 0.000968 0.900000 0.036252
7.913855 0.065854 -0.038020 0.003890 0.900000 0.038218
8.018675 0.065854 -0.030525 -0.002610 0.900000 0.030637
8.123494 0.065854 -0.019548 -0.000099 0.900000 0.019549
8.228313 0.065854 -0.014026 0.000303 0.900000 0.014029
8.333133 0.065854 -0.010171 -0.000439 0.900000 0.010181
8.437952 0.065854 -0.006381 0.000083 0.900000 0.006381
8.542771 0.065854 -0.002242 0.000504 0.900000 0.002298
8.647590 0.065854 0.000000 0.000000 0.000000 0.000000
0.052410 0.080488 0.000000 0.000000 0.000000 0.000000
0.157229 0.080488 -0.003355 0.002730 0.900000 0.004325
0.262048 0.080488 -0.008779 0.001906 0.900000 0.008983
0.366867 0.080488 -0.011804 0.000942 0.900000 0.011842
0.471687 0.080488 -0.013156 0.000816 0.900000 0.013182
0.576506 0.080488 -0.012564 -0.000939 0.900000 0.012599
0.681325 0.080488 -0.009732 0.000752 0.900000 0.009761
0.786145 0.080488 -0.007644 0.000404 0.900000 0.007655
0.890964 0.080488 -0.007634 0.000625 0.900000 0.007660
0.995783 0.080488 -0.008146 0.000556 0.900000 0.008164
1.100602 0.080488 -0.009459 -0.000200 0.900000 0.009461
1.205422 0.080488 -0.010381 0.000469 0.900000 0.010392
1.310241 0.080488 -0.011915 -0.000473 0.900000 0.011925
1.415060 0.080488 -0.012988 -0.000289 0.900000 0.012991
1.519880 0.080488 -0.008954 -0.000351 0.900000 0.008961
1.624699 0.080488 -0.004490 -0.000426 0.900000 0.004510
1.729518 0.080488 -0.004194 -0.000070 0.900000 0.004195
1.834337 0.080488 -0.006874 0.002784 0.900000 0.007416
1.939157 0.080488 -0.010730 -0.002641 0.900000 0.011050
2.043976 0.080488 -0.014420 0.000572 0.900000 0.014431
2.148795 0.080488 -0.017201 0.000919 0.900000 0.017225
2.253614 0.080488 -0.017556 0.001684 0.900000 0.017637
2.358434 0.080488 -0.015331 0.000175 0.900000 0.015332
2.463253 0.080488 -0.009433 0.001534 0.900000 0.009557
2.568072 0.080488 -0.010267 -0.000933 0.900000 0.010309
2.672892 0.080488 -0.014754 0.002658 0.900000 0.014992
2.777711 0.080488 -0.013312 0.000954 0.900000 0.013347
2.882530 0.080488 -0.008027 0.006833 0.900000 0.010542
2.987349 0.080488 0.003264 -0.005313 0.900000 0.006236
3.092169 0.080488 0.012341 0.002117 0.900000 0.012521
3.196988 0.080488 0.014347 0.000596 0.900000 0.014359
3.301807 0.080488 0.012957 0.001574 0.900000 0.013053
3.406627 0.080488 0.009830 0.002000 0.900000 0.010032
3.511446 0.080488 0.006425 0.002364 0.900000 0.006846
3.616265 0.080488 -0.000462 0.000483 0.900000 0.000669
3.721084 0.080488 -0.021198 0.001893 0.900000 0.021282
3.825904 0.080488 -0.047454 0.002374 0.900000 0.047514
3.930723 0.080488 -0.056329 0.000313 0.900000 0.056330
4.035542 0.080488 -0.051122 -0.003119 0.900000 0.051217
4.140361 0.080488 -0.042241 -0.001927 0.900000 0.042285
4.245181 0.080488 -0.037822 0.000017 0.900000 0.037822
4.350000 0.080488 -0.040398 0.001551 0.900000 0.040427
4.454819 0.080488 -0.043627 0.000965 0.900000 0.043638
4.559639 0.080488 -0.044803 -0.002115 0.900000 0.044853
4.664458 0.080488 -0.042572 0.000490 0.900000 0.042575
4.769277 0.080488 -0.040999 0.001554 0.900000 0.041028
4.874096 0.080488 -0.039725 0.001992 0.900000 0.039775
4.978916 0.080488 -0.041367 -0.000401 0.900000 0.041369
5.083735 0.080488 -0.034724 0.000030 0.900000 0.034724
5.188554 0.080488 -0.027108 0.002858 0.900000 0.027258
5.293373 0.080488 -0.030750 -0.000413 0.900000 0.030753
5.398193 0.080488 -0.037055 0.001056 0.900000 0.037070
5.503012 0.080488 -0.040065 -0.000284 0.900000 0.040066
5.607831 0.080488 -0.038699 0.000803 0.900000 0.038708
5.712651 0.080488 -0.040383 -0.001324 0.900000 0.040405
5.817470 0.080488 -0.031460 0.001911 0.900000 0.031518
5.922289 0.080488 -0.017583 -0.000000 0.900000 0.017583
6.027108 0.080488 -0.009876 0.002136 0.900000 0.010105
6.131928 0.080488 -0.011840 -0.001001 0.900000 0.011882
6.236747 0.080488 -0.023403 -0.000997 0.900000 0.023424
6.341566 0.080488 -0.034486 -0.002122 0.900000 0.034551
6.446386 0.080488 -0.040600 -0.000044 0.900000 0.040600
6.551205 0.080488 -0.041951 -0.001519 0.900000 0.041979
6.656024 0.080488 -0.042416 0.000443 0.900000 0.042418
6.760843 0.080488 -0.041018 -0.000751 0.900000 0.041024
6.865663 0.080488 -0.035597 0.001320 0.900000 0.035622
6.970482 0.080488 -0.019968 0.003006 0.900000 0.020193
7.075301 0.080488 -0.010214 -0.000746 0.900000 0.010241
7.180120 0.080488 -0.013065 -0.000570 0.900000 0.013077
7.284940 0.080488 -0.018999 -0.001066 0.900000 0.019029
7.389759 0.080488 -0.024568 0.002047 0.900000 0.024653
7.494578 0.080488 -0.026877 0.000683 0.900000 0.026886
7.599398 0.080488 -0.028922 0.000034 0.900000 0.028922
7.704217 0.080488 -0.031855 0.001129 0.900000 0.031875
7.809036 0.080488 -0.034744 0.001089 0.900000 0.034761
7.913855 0.080488 -0.032119 0.004577 0.900000 0.032443
8.018675 0.080488 -0.025567 -0.003389 0.900000 0.025791
8.123494 0.080488 -0.019443 -0.000303 0.900000 0.019445
8.228313 0.080488 -0.013968 0.000223 0.900000 0.013970
8.333133 0.080488 -0.009890 -0.000516 0.900000 0.009904
8.437952 0.080488 -0.006168 0.000124 0.900000 0.006170
8.542771 0.080488 -0.002122 0.000713 0.900000 0.002239
8.647590 0.080488 0.000000 0.000000 0.000000 0.000000
0.052410 0.095122 0.000000 0.000000 0.000000 0.000000
0.157229 0.095122 -0.003394 0.003349 0.900000 0.004768
0.262048 0.095122 -0.008796 0.002323 0.900000 0.009097
0.366867 0.095122 -0.011830 0.001130 0.900000 0.011884
0.471687 0.095122 -0.013058 0.000974 0.900000 0.013094
0.576506 0.095122 -0.012583 -0.001017 0.900000 0.012624
0.681325 0.095122 -0.009977 0.000711 0.900000 0.010002
0.786145 0.095122 -0.007959 0.000278 0.900000 0.007964
0.890964 0.095122 -0.007866 0.000771 0.900000 0.007903
0.995783 0.095122 -0.008396 0.000536 0.900000 0.008413
1.100602 0.095122 -0.009647 -0.000174 0.900000 0.009649
1.205422 0.095122 -0.010464 0.000322 0.900000 0.010469
1.310241 0.095122 -0.012034 -0.000421 0.900000 0.012041
1.415060 0.095122 -0.012935 -0.000473 0.900000 0.012943
1.519880 0.095122 -0.008891 -0.000517 0.900000 0.008906
1.624699 0.095122 -0.004684 -0.000622 0.900000 0.004725
1.729518 0.095122 -0.004180 0.000045 0.900000 0.004181
1.834337 0.095122 -0.003682 0.002597 0.900000 0.004506
1.939157 0.095122 -0.007720 -0.002252 0.900000 0.008042
2.043976 0.095122 -0.014630 0.000723 0.900000 0.014647
2.148795 0.095122 -0.017727 0.001431 0.900000 0.017785
2.253614 0.095122 -0.018242 0.001712 0.900000 0.018323
2.358434 0.095122 -0.015707 0.000354 0.900000 0.015711
2.463253 0.095122 -0.010241 0.001376 0.900000 0.010333
2.568072 0.095122 -0.013505 -0.000027 0.900000 0.013505
2.672892 0.095122 -0.017960 0.002246 0.900000 0.018100
2.777711 0.095122 -0.013792 0.001649 0.900000 0.013890
2.882530 0.095122 -0.001249 0.005813 0.900000 0.005946
2.987349 0.095122 0.009977 -0.003590 0.900000 0.010604
3.092169 0.095122 0.012478 0.001311 0.900000 0.012547
3.196988 0.095122 0.014222 0.000779 0.900000 0.014243
3.301807 0.095122 0.012623 0.001436 0.900000 0.012705
3.406627 0.095122 0.010819 0.002192 0.900000 0.011039
3.511446 0.095122 0.007854 0.001521 0.900000 0.008000
3.616265 0.095122 -0.000301 0.000337 0.900000 0.000452
3.721084 0.095122 -0.023019 0.001905 0.900000 0.023098
3.825904 0.095122 -0.047937 0.002193 0.900000 0.047988
3.930723 0.095122 -0.054373 -0.001281 0.900000 0.054388
4.035542 0.095122 -0.050199 -0.003806 0.900000 0.050343
4.140361 0.095122 -0.042458 -0.002466 0.900000 0.042530
4.245181 0.095122 -0.037589 -0.000452 0.900000 0.037592
4.350000 0.095122 -0.039823 0.000861 0.900000 0.039832
4.454819 0.095122 -0.043141 0.000385 0.900000 0.043143
4.559639 0.095122 -0.044528 -0.003055 0.900000 0.044632
4.664458 0.095122 -0.042812 -0.000666 0.900000 0.042817