TITLE="(Vx,Vy)"
VARIABLES=X,Y,Vx,Vy,Vm,V
ZONE T="T-Dummy" I=83, J=41, F=POINT
0.052410 0.007317 0.000000 0.000000 0.000000 0.000000
0.157229 0.007317 0.000000 0.000000 0.000000 0.000000
0.262048 0.007317 0.000000 0.000000 0.000000 0.000000
0.366867 0.007317 0.000000 0.000000 0.000000 0.000000
0.471687 0.007317 0.000000 0.000000 0.000000 0.000000
0.576506 0.007317 0.000000 0.000000 0.000000 0.000000
0.681325 0.007317 0.000000 0.000000 0.000000 0.000000
0.786145 0.007317 0.000000 0.000000 0.000000 0.000000
0.890964 0.007317 0.000000 0.000000 0.000000 0.000000
0.995783 0.007317 0.000000 0.000000 0.000000 0.000000
1.100602 0.007317 0.000000 0.000000 0.000000 0.000000
1.205422 0.007317 0.000000 0.000000 0.000000 0.000000
1.310241 0.007317 0.000000 0.000000 0.000000 0.000000
1.415060 0.007317 0.000000 0.000000 0.000000 0.000000
1.519880 0.007317 0.000000 0.000000 0.000000 0.000000
1.624699 0.007317 0.000000 0.000000 0.000000 0.000000
1.729518 0.007317 0.000000 0.000000 0.000000 0.000000
1.834337 0.007317 0.000000 0.000000 0.000000 0.000000
1.939157 0.007317 0.000000 0.000000 0.000000 0.000000
2.043976 0.007317 0.000000 0.000000 0.000000 0.000000
2.148795 0.007317 0.000000 0.000000 0.000000 0.000000
2.253614 0.007317 0.000000 0.000000 0.000000 0.000000
2.358434 0.007317 0.000000 0.000000 0.000000 0.000000
2.463253 0.007317 0.000000 0.000000 0.000000 0.000000
2.568072 0.007317 0.000000 0.000000 0.000000 0.000000
2.672892 0.007317 0.000000 0.000000 0.000000 0.000000
2.777711 0.007317 0.000000 0.000000 0.000000 0.000000
2.882530 0.007317 0.000000 0.000000 0.000000 0.000000
2.987349 0.007317 0.000000 0.000000 0.000000 0.000000
3.092169 0.007317 0.000000 0.000000 0.000000 0.000000
3.196988 0.007317 0.000000 0.000000 0.000000 0.000000
3.301807 0.007317 0.000000 0.000000 0.000000 0.000000
3.406627 0.007317 0.000000 0.000000 0.000000 0.000000
3.511446 0.007317 0.000000 0.000000 0.000000 0.000000
3.616265 0.007317 0.000000 0.000000 0.000000 0.000000
3.721084 0.007317 0.000000 0.000000 0.000000 0.000000
3.825904 0.007317 0.000000 0.000000 0.000000 0.000000
3.930723 0.007317 0.000000 0.000000 0.000000 0.000000
4.035542 0.007317 0.000000 0.000000 0.000000 0.000000
4.140361 0.007317 0.000000 0.000000 0.000000 0.000000
4.245181 0.007317 0.000000 0.000000 0.000000 0.000000
4.350000 0.007317 0.000000 0.000000 0.000000 0.000000
4.454819 0.007317 0.000000 0.000000 0.000000 0.000000
4.559639 0.007317 0.000000 0.000000 0.000000 0.000000
4.664458 0.007317 0.000000 0.000000 0.000000 0.000000
4.769277 0.007317 0.000000 0.000000 0.000000 0.000000
4.874096 0.007317 0.000000 0.000000 0.000000 0.000000
4.978916 0.007317 0.000000 0.000000 0.000000 0.000000
5.083735 0.007317 0.000000 0.000000 0.000000 0.000000
5.188554 0.007317 0.000000 0.000000 0.000000 0.000000
5.293373 0.007317 0.000000 0.000000 0.000000 0.000000
5.398193 0.007317 0.000000 0.000000 0.000000 0.000000
5.503012 0.007317 0.000000 0.000000 0.000000 0.000000
5.607831 0.007317 0.000000 0.000000 0.000000 0.000000
5.712651 0.007317 0.000000 0.000000 0.000000 0.000000
5.817470 0.007317 0.000000 0.000000 0.000000 0.000000
5.922289 0.007317 0.000000 0.000000 0.000000 0.000000
6.027108 0.007317 0.000000 0.000000 0.000000 0.000000
6.131928 0.007317 0.000000 0.000000 0.000000 0.000000
6.236747 0.007317 0.000000 0.000000 0.000000 0.000000
6.341566 0.007317 0.000000 0.000000 0.000000 0.000000
6.446386 0.007317 0.000000 0.000000 0.000000 0.000000
6.551205 0.007317 0.000000 0.000000 0.000000 0.000000
6.656024 0.007317 0.000000 0.000000 0.000000 0.000000
6.760843 0.007317 0.000000 0.000000 0.000000 0.000000
6.865663 0.007317 0.000000 0.000000 0.000000 0.000000
6.970482 0.007317 0.000000 0.000000 0.000000 0.000000
7.075301 0.007317 0.000000 0.000000 0.000000 0.000000
7.180120 0.007317 0.000000 0.000000 0.000000 0.000000
7.284940 0.007317 0.000000 0.000000 0.000000 0.000000
7.389759 0.007317 0.000000 0.000000 0.000000 0.000000
7.494578 0.007317 0.000000 0.000000 0.000000 0.000000
7.599398 0.007317 0.000000 0.000000 0.000000 0.000000
7.704217 0.007317 0.000000 0.000000 0.000000 0.000000
7.809036 0.007317 0.000000 0.000000 0.000000 0.000000
7.913855 0.007317 0.000000 0.000000 0.000000 0.000000
8.018675 0.007317 0.000000 0.000000 0.000000 0.000000
8.123494 0.007317 0.000000 0.000000 0.000000 0.000000
8.228313 0.007317 0.000000 0.000000 0.000000 0.000000
8.333133 0.007317 0.000000 0.000000 0.000000 0.000000
8.437952 0.007317 0.000000 0.000000 0.000000 0.000000
8.542771 0.007317 0.000000 0.000000 0.000000 0.000000
8.647590 0.007317 0.000000 0.000000 0.000000 0.000000
0.052410 0.021951 0.000000 0.000000 0.000000 0.000000
0.157229 0.021951 -0.003539 0.000576 0.900000 0.003585
0.262048 0.021951 -0.010756 0.000558 0.900000 0.010771
0.366867 0.021951 -0.017355 0.000568 0.900000 0.017365
0.471687 0.021951 -0.022035 0.000578 0.900000 0.022043
0.576506 0.021951 -0.024185 0.000603 0.900000 0.024192
0.681325 0.021951 -0.024701 0.000779 0.900000 0.024713
0.786145 0.021951 -0.024814 0.000877 0.900000 0.024830
0.890964 0.021951 -0.024716 0.000917 0.900000 0.024733
0.995783 0.021951 -0.024408 0.000858 0.900000 0.024423
1.100602 0.021951 -0.023387 0.000719 0.900000 0.023398
1.205422 0.021951 -0.021564 0.000741 0.900000 0.021577
1.310241 0.021951 -0.018595 0.000757 0.900000 0.018610
1.415060 0.021951 -0.015043 0.000955 0.900000 0.015073
1.519880 0.021951 -0.012256 0.001089 0.900000 0.012304
1.624699 0.021951 -0.008930 0.000935 0.900000 0.008978
1.729518 0.021951 -0.005097 0.000929 0.900000 0.005181
1.834337 0.021951 -0.001146 0.000835 0.900000 0.001418
1.939157 0.021951 0.003328 0.000912 0.900000 0.003451
2.043976 0.021951 0.007239 0.001113 0.900000 0.007324
2.148795 0.021951 0.010395 0.001128 0.900000 0.010456
2.253614 0.021951 0.012232 0.001045 0.900000 0.012277
2.358434 0.021951 0.014110 0.000974 0.900000 0.014143
2.463253 0.021951 0.016538 0.001085 0.900000 0.016574
2.568072 0.021951 0.017729 0.001154 0.900000 0.017766
2.672892 0.021951 0.017159 0.001355 0.900000 0.017213
2.777711 0.021951 0.017117 0.001035 0.900000 0.017148
2.882530 0.021951 0.019883 0.000749 0.900000 0.019897
2.987349 0.021951 0.022848 0.000947 0.900000 0.022868
3.092169 0.021951 0.025113 0.001231 0.900000 0.025143
3.196988 0.021951 0.027755 0.001527 0.900000 0.027797
3.301807 0.021951 0.029144 0.001874 0.900000 0.029204
3.406627 0.021951 0.030907 0.001806 0.900000 0.030959
3.511446 0.021951 0.035249 0.001682 0.900000 0.035290
3.616265 0.021951 0.039630 0.001754 0.900000 0.039669
3.721084 0.021951 0.042172 0.001889 0.900000 0.042214
3.825904 0.021951 0.043689 0.002006 0.900000 0.043736
3.930723 0.021951 0.048545 0.001617 0.900000 0.048572
4.035542 0.021951 0.055137 0.001552 0.900000 0.055158
4.140361 0.021951 0.059518 0.001582 0.900000 0.059539
4.245181 0.021951 0.062568 0.001789 0.900000 0.062594
4.350000 0.021951 0.064427 0.001829 0.900000 0.064453
4.454819 0.021951 0.066645 0.001693 0.900000 0.066667
4.559639 0.021951 0.068458 0.001480 0.900000 0.068474
4.664458 0.021951 0.067603 0.001483 0.900000 0.067619
4.769277 0.021951 0.065491 0.001504 0.900000 0.065508
4.874096 0.021951 0.065791 0.001449 0.900000 0.065807
4.978916 0.021951 0.067988 0.001640 0.900000 0.068008
5.083735 0.021951 0.068713 0.001862 0.900000 0.068738
5.188554 0.021951 0.067218 0.001607 0.900000 0.067237
5.293373 0.021951 0.065036 0.001201 0.900000 0.065047
5.398193 0.021951 0.063048 0.001191 0.900000 0.063060
5.503012 0.021951 0.060567 0.001377 0.900000 0.060583
5.607831 0.021951 0.058561 0.001354 0.900000 0.058577
5.712651 0.021951 0.056925 0.001155 0.900000 0.056937
5.817470 0.021951 0.055240 0.001011 0.900000 0.055250
5.922289 0.021951 0.053250 0.001153 0.900000 0.053263
6.027108 0.021951 0.050823 0.001123 0.900000 0.050836
6.131928 0.021951 0.048471 0.001112 0.900000 0.048484
6.236747 0.021951 0.045968 0.001064 0.900000 0.045981
6.341566 0.021951 0.043150 0.000903 0.900000 0.043160
6.446386 0.021951 0.041426 0.000588 0.900000 0.041430
6.551205 0.021951 0.041569 0.000617 0.900000 0.041573
6.656024 0.021951 0.042198 0.000762 0.900000 0.042205
6.760843 0.021951 0.042326 0.000846 0.900000 0.042334
6.865663 0.021951 0.042217 0.000755 0.900000 0.042224
6.970482 0.021951 0.041526 0.000734 0.900000 0.041533
7.075301 0.021951 0.039920 0.000618 0.900000 0.039925
7.180120 0.021951 0.038437 0.000580 0.900000 0.038441
7.284940 0.021951 0.037776 0.000507 0.900000 0.037779
7.389759 0.021951 0.037274 0.000456 0.900000 0.037276
7.494578 0.021951 0.035888 0.000325 0.900000 0.035889
7.599398 0.021951 0.034349 0.000325 0.900000 0.034350
7.704217 0.021951 0.033375 0.000288 0.900000 0.033376
7.809036 0.021951 0.032276 0.000227 0.900000 0.032277
7.913855 0.021951 0.030486 0.000073 0.900000 0.030486
8.018675 0.021951 0.027917 -0.000031 0.900000 0.027917
8.123494 0.021951 0.025524 -0.000288 0.900000 0.025525
8.228313 0.021951 0.022557 -0.000156 0.900000 0.022558
8.333133 0.021951 0.017642 -0.000086 0.900000 0.017642
8.437952 0.021951 0.011481 -0.000035 0.900000 0.011481
8.542771 0.021951 0.004048 -0.000011 0.900000 0.004048
8.647590 0.021951 0.000000 0.000000 0.000000 0.000000
0.052410 0.036585 0.000000 0.000000 0.000000 0.000000
0.157229 0.036585 -0.003506 0.001726 0.900000 0.003908
0.262048 0.036585 -0.010674 0.001671 0.900000 0.010804
0.366867 0.036585 -0.017175 0.001685 0.900000 0.017257
0.471687 0.036585 -0.021766 0.001718 0.900000 0.021833
0.576506 0.036585 -0.024044 0.001809 0.900000 0.024112
0.681325 0.036585 -0.024599 0.002274 0.900000 0.024704
0.786145 0.036585 -0.024566 0.002557 0.900000 0.024699
0.890964 0.036585 -0.024389 0.002664 0.900000 0.024534
0.995783 0.036585 -0.023965 0.002480 0.900000 0.024093
1.100602 0.036585 -0.022949 0.002143 0.900000 0.023049
1.205422 0.036585 -0.021130 0.002211 0.900000 0.021246
1.310241 0.036585 -0.018184 0.002259 0.900000 0.018324
1.415060 0.036585 -0.014705 0.002794 0.900000 0.014968
1.519880 0.036585 -0.011695 0.003160 0.900000 0.012114
1.624699 0.036585 -0.008351 0.002745 0.900000 0.008791
1.729518 0.036585 -0.004745 0.002724 0.900000 0.005471
1.834337 0.036585 -0.000887 0.002458 0.900000 0.002613
1.939157 0.036585 0.003594 0.002657 0.900000 0.004469
2.043976 0.036585 0.007780 0.003227 0.900000 0.008423
2.148795 0.036585 0.010950 0.003254 0.900000 0.011423
2.253614 0.036585 0.012640 0.003032 0.900000 0.012999
2.358434 0.036585 0.014423 0.002805 0.900000 0.014694
2.463253 0.036585 0.016719 0.003105 0.900000 0.017004
2.568072 0.036585 0.018088 0.003341 0.900000 0.018394
2.672892 0.036585 0.018003 0.003883 0.900000 0.018417
2.777711 0.036585 0.018138 0.002994 0.900000 0.018384
2.882530 0.036585 0.020366 0.002162 0.900000 0.020480
2.987349 0.036585 0.023018 0.002706 0.900000 0.023176
3.092169 0.036585 0.025479 0.003521 0.900000 0.025721
3.196988 0.036585 0.028235 0.004332 0.900000 0.028566
3.301807 0.036585 0.030039 0.005274 0.900000 0.030499
3.406627 0.036585 0.032193 0.005104 0.900000 0.032595
3.511446 0.036585 0.036246 0.004746 0.900000 0.036555
3.616265 0.036585 0.040390 0.004928 0.900000 0.040689
3.721084 0.036585 0.043148 0.005283 0.900000 0.043470
3.825904 0.036585 0.045153 0.005644 0.900000 0.045505
3.930723 0.036585 0.050037 0.004550 0.900000 0.050244
4.035542 0.036585 0.056250 0.004398 0.900000 0.056422
4.140361 0.036585 0.060620 0.004500 0.900000 0.060787
4.245181 0.036585 0.063906 0.005058 0.900000 0.064106
4.350000 0.036585 0.066172 0.005106 0.900000 0.066369
4.454819 0.036585 0.068591 0.004725 0.900000 0.068754
4.559639 0.036585 0.070038 0.004219 0.900000 0.070165
4.664458 0.036585 0.068944 0.004235 0.900000 0.069074
4.769277 0.036585 0.067149 0.004212 0.900000 0.067281
4.874096 0.036585 0.067562 0.004052 0.900000 0.067683
4.978916 0.036585 0.069533 0.004603 0.900000 0.069685
5.083735 0.036585 0.070362 0.005220 0.900000 0.070555
5.188554 0.036585 0.069100 0.004534 0.900000 0.069248
5.293373 0.036585 0.066886 0.003434 0.900000 0.066974
5.398193 0.036585 0.064788 0.003398 0.900000 0.064877
5.503012 0.036585 0.062403 0.003900 0.900000 0.062525
5.607831 0.036585 0.060472 0.003804 0.900000 0.060591
5.712651 0.036585 0.058628 0.003191 0.900000 0.058715
5.817470 0.036585 0.056716 0.002783 0.900000 0.056784
5.922289 0.036585 0.054785 0.003218 0.900000 0.054879
6.027108 0.036585 0.052423 0.003141 0.900000 0.052517
6.131928 0.036585 0.050031 0.003101 0.900000 0.050127
6.236747 0.036585 0.047438 0.002963 0.900000 0.047530
6.341566 0.036585 0.044537 0.002481 0.900000 0.044606
6.446386 0.036585 0.042815 0.001616 0.900000 0.042846
6.551205 0.036585 0.042939 0.001740 0.900000 0.042975
6.656024 0.036585 0.043568 0.002131 0.900000 0.043620
6.760843 0.036585 0.043657 0.002368 0.900000 0.043721
6.865663 0.036585 0.043368 0.002090 0.900000 0.043419
6.970482 0.036585 0.042570 0.002035 0.900000 0.042619
7.075301 0.036585 0.041042 0.001714 0.900000 0.041078
7.180120 0.036585 0.039565 0.001610 0.900000 0.039597
7.284940 0.036585 0.038775 0.001380 0.900000 0.038799
7.389759 0.036585 0.038158 0.001246 0.900000 0.038178
7.494578 0.036585 0.036785 0.000899 0.900000 0.036796
7.599398 0.036585 0.035235 0.000893 0.900000 0.035246
7.704217 0.036585 0.034152 0.000751 0.900000 0.034161
7.809036 0.036585 0.032962 0.000573 0.900000 0.032967
7.913855 0.036585 0.031136 0.000156 0.900000 0.031136
8.018675 0.036585 0.028578 -0.000113 0.900000 0.028578
8.123494 0.036585 0.025910 -0.000824 0.900000 0.025923
8.228313 0.036585 0.022630 -0.000460 0.900000 0.022634
8.333133 0.036585 0.017674 -0.000255 0.900000 0.017675
8.437952 0.036585 0.011497 -0.000103 0.900000 0.011498
8.542771 0.036585 0.004055 -0.000034 0.900000 0.004055
8.647590 0.036585 0.000000 0.000000 0.000000 0.000000
0.052410 0.051220 0.000000 0.000000 0.000000 0.000000
0.157229 0.051220 -0.003477 0.002871 0.900000 0.004509
0.262048 0.051220 -0.010599 0.002780 0.900000 0.010957
0.366867 0.051220 -0.017056 0.002770 0.900000 0.017279
0.471687 0.051220 -0.021544 0.002821 0.900000 0.021728
0.576506 0.051220 -0.023887 0.003013 0.900000 0.024077
0.681325 0.051220 -0.024444 0.003644 0.900000 0.024714
0.786145 0.051220 -0.024268 0.004103 0.900000 0.024612
0.890964 0.051220 -0.023987 0.004237 0.900000 0.024358
0.995783 0.051220 -0.023520 0.003934 0.900000 0.023847
1.100602 0.051220 -0.022541 0.003520 0.900000 0.022815
1.205422 0.051220 -0.020672 0.003659 0.900000 0.020993
1.310241 0.051220 -0.017759 0.003732 0.900000 0.018147
1.415060 0.051220 -0.014315 0.004497 0.900000 0.015004
1.519880 0.051220 -0.011116 0.005021 0.900000 0.012197
1.624699 0.051220 -0.007776 0.004443 0.900000 0.008956
1.729518 0.051220 -0.004373 0.004394 0.900000 0.006199
1.834337 0.051220 -0.000604 0.003988 0.900000 0.004034
1.939157 0.051220 0.003892 0.004272 0.900000 0.005780
2.043976 0.051220 0.008358 0.005126 0.900000 0.009805
2.148795 0.051220 0.011519 0.005127 0.900000 0.012608
2.253614 0.051220 0.013035 0.004813 0.900000 0.013896
2.358434 0.051220 0.014778 0.004391 0.900000 0.015416
2.463253 0.051220 0.016973 0.004826 0.900000 0.017646
2.568072 0.051220 0.018466 0.005284 0.900000 0.019207
2.672892 0.051220 0.018847 0.006053 0.900000 0.019796
2.777711 0.051220 0.019152 0.004734 0.900000 0.019729
2.882530 0.051220 0.020895 0.003399 0.900000 0.021170
2.987349 0.051220 0.023273 0.004197 0.900000 0.023648
3.092169 0.051220 0.025943 0.005472 0.900000 0.026514
3.196988 0.051220 0.028834 0.006664 0.900000 0.029594
3.301807 0.051220 0.030998 0.008029 0.900000 0.032021
3.406627 0.051220 0.033508 0.007803 0.900000 0.034405
3.511446 0.051220 0.037295 0.007235 0.900000 0.037990
3.616265 0.051220 0.041231 0.007454 0.900000 0.041899
3.721084 0.051220 0.044270 0.007919 0.900000 0.044973
3.825904 0.051220 0.046726 0.008570 0.900000 0.047505
3.930723 0.051220 0.051605 0.006913 0.900000 0.052066
4.035542 0.051220 0.057522 0.006742 0.900000 0.057916
4.140361 0.051220 0.061887 0.006929 0.900000 0.062274
4.245181 0.051220 0.065340 0.007749 0.900000 0.065798
4.350000 0.051220 0.067960 0.007653 0.900000 0.068389
4.454819 0.051220 0.070653 0.007084 0.900000 0.071007
4.559639 0.051220 0.071738 0.006548 0.900000 0.072037
4.664458 0.051220 0.070313 0.006581 0.900000 0.070621
4.769277 0.051220 0.068866 0.006314 0.900000 0.069155
4.874096 0.051220 0.069440 0.006098 0.900000 0.069707
4.978916 0.051220 0.071173 0.006966 0.900000 0.071513
5.083735 0.051220 0.072062 0.007892 0.900000 0.072493
5.188554 0.051220 0.071019 0.006906 0.900000 0.071354
5.293373 0.051220 0.068738 0.005336 0.900000 0.068945
5.398193 0.051220 0.066582 0.005249 0.900000 0.066788
5.503012 0.051220 0.064355 0.005950 0.900000 0.064629
5.607831 0.051220 0.062448 0.005745 0.900000 0.062712
5.712651 0.051220 0.060393 0.004690 0.900000 0.060575
5.817470 0.051220 0.058309 0.004079 0.900000 0.058452
5.922289 0.051220 0.056411 0.004838 0.900000 0.056618
6.027108 0.051220 0.054043 0.004738 0.900000 0.054250
6.131928 0.051220 0.051611 0.004637 0.900000 0.051818
6.236747 0.051220 0.048902 0.004429 0.900000 0.049103
6.341566 0.051220 0.045890 0.003618 0.900000 0.046032
6.446386 0.051220 0.044191 0.002355 0.900000 0.044254
6.551205 0.051220 0.044343 0.002640 0.900000 0.044422
6.656024 0.051220 0.044899 0.003215 0.900000 0.045014
6.760843 0.051220 0.044983 0.003543 0.900000 0.045122
6.865663 0.051220 0.044622 0.003082 0.900000 0.044729
6.970482 0.051220 0.043658 0.003029 0.900000 0.043763
7.075301 0.051220 0.042151 0.002538 0.900000 0.042228
7.180120 0.051220 0.040718 0.002387 0.900000 0.040788
7.284940 0.051220 0.039806 0.001996 0.900000 0.039856
7.389759 0.051220 0.039022 0.001810 0.900000 0.039064
7.494578 0.051220 0.037656 0.001316 0.900000 0.037679
7.599398 0.051220 0.036093 0.001304 0.900000 0.036117
7.704217 0.051220 0.034892 0.001003 0.900000 0.034907
7.809036 0.051220 0.033606 0.000712 0.900000 0.033613
7.913855 0.051220 0.031752 0.000116 0.900000 0.031752
8.018675 0.051220 0.029178 -0.000234 0.900000 0.029179
8.123494 0.051220 0.026261 -0.001293 0.900000 0.026293
8.228313 0.051220 0.022709 -0.000748 0.900000 0.022722
8.333133 0.051220 0.017714 -0.000417 0.900000 0.017719
8.437952 0.051220 0.011526 -0.000170 0.900000 0.011527
8.542771 0.051220 0.004063 -0.000056 0.900000 0.004063
8.647590 0.051220 0.000000 0.000000 0.000000 0.000000
0.052410 0.065854 0.000000 0.000000 0.000000 0.000000
0.157229 0.065854 -0.003446 0.004012 0.900000 0.005289
0.262048 0.065854 -0.010521 0.003884 0.900000 0.011215
0.366867 0.065854 -0.016971 0.003839 0.900000 0.017400
0.471687 0.065854 -0.021387 0.003883 0.900000 0.021736
0.576506 0.065854 -0.023755 0.004217 0.900000 0.024126
0.681325 0.065854 -0.024298 0.004897 0.900000 0.024786
0.786145 0.065854 -0.023973 0.005528 0.900000 0.024602
0.890964 0.065854 -0.023590 0.005643 0.900000 0.024256
0.995783 0.065854 -0.023098 0.005289 0.900000 0.023695
1.100602 0.065854 -0.022097 0.004863 0.900000 0.022626
1.205422 0.065854 -0.020165 0.005089 0.900000 0.020797
1.310241 0.065854 -0.017300 0.005154 0.900000 0.018051
1.415060 0.065854 -0.013930 0.006068 0.900000 0.015195
1.519880 0.065854 -0.010576 0.006681 0.900000 0.012509
1.624699 0.065854 -0.007222 0.006044 0.900000 0.009418
1.729518 0.065854 -0.004009 0.005948 0.900000 0.007174
1.834337 0.065854 -0.000286 0.005423 0.900000 0.005431
1.939157 0.065854 0.004224 0.005816 0.900000 0.007188
2.043976 0.065854 0.008945 0.006818 0.900000 0.011247
2.148795 0.065854 0.012118 0.006763 0.900000 0.013878
2.253614 0.065854 0.013408 0.006407 0.900000 0.014860
2.358434 0.065854 0.015111 0.005804 0.900000 0.016188
2.463253 0.065854 0.017303 0.006336 0.900000 0.018426
2.568072 0.065854 0.018895 0.006996 0.900000 0.020149
2.672892 0.065854 0.019644 0.007881 0.900000 0.021166
2.777711 0.065854 0.020060 0.006262 0.900000 0.021015
2.882530 0.065854 0.021398 0.004498 0.900000 0.021865
2.987349 0.065854 0.023574 0.005489 0.900000 0.024204
3.092169 0.065854 0.026478 0.007095 0.900000 0.027412
3.196988 0.065854 0.029549 0.008560 0.900000 0.030764
3.301807 0.065854 0.032016 0.010241 0.900000 0.033614
3.406627 0.065854 0.034806 0.009957 0.900000 0.036202
3.511446 0.065854 0.038411 0.009192 0.900000 0.039495
3.616265 0.065854 0.042132 0.009393 0.900000 0.043166
3.721084 0.065854 0.045415 0.009903 0.900000 0.046482
3.825904 0.065854 0.048321 0.010941 0.900000 0.049545
3.930723 0.065854 0.053199 0.008762 0.900000 0.053915
4.035542 0.065854 0.058819 0.008619 0.900000 0.059448
4.140361 0.065854 0.063151 0.008873 0.900000 0.063771
4.245181 0.065854 0.066790 0.009915 0.900000 0.067522
4.350000 0.065854 0.069659 0.009558 0.900000 0.070311
4.454819 0.065854 0.072720 0.008820 0.900000 0.073253
4.559639 0.065854 0.073582 0.008520 0.900000 0.074073
4.664458 0.065854 0.071689 0.008564 0.900000 0.072199
4.769277 0.065854 0.070515 0.007882 0.900000 0.070954
4.874096 0.065854 0.071418 0.007718 0.900000 0.071834
4.978916 0.065854 0.072959 0.008820 0.900000 0.073490
5.083735 0.065854 0.073787 0.009967 0.900000 0.074457
5.188554 0.065854 0.072905 0.008763 0.900000 0.073429
5.293373 0.065854 0.070541 0.006924 0.900000 0.070880
5.398193 0.065854 0.068320 0.006743 0.900000 0.068652
5.503012 0.065854 0.066280 0.007528 0.900000 0.066706
5.607831 0.065854 0.064402 0.007201 0.900000 0.064804
5.712651 0.065854 0.062073 0.005771 0.900000 0.062340
5.817470 0.065854 0.059918 0.005021 0.900000 0.060128
5.922289 0.065854 0.058127 0.006076 0.900000 0.058443
6.027108 0.065854 0.055684 0.005977 0.900000 0.056003
6.131928 0.065854 0.053169 0.005759 0.900000 0.053480
6.236747 0.065854 0.050373 0.005502 0.900000 0.050672
6.341566 0.065854 0.047233 0.004388 0.900000 0.047436
6.446386 0.065854 0.045538 0.002881 0.900000 0.045629
6.551205 0.065854 0.045757 0.003331 0.900000 0.045878
6.656024 0.065854 0.046214 0.004056 0.900000 0.046391
6.760843 0.065854 0.046215 0.004381 0.900000 0.046423
6.865663 0.065854 0.045800 0.003748 0.900000 0.045953
6.970482 0.065854 0.044731 0.003744 0.900000 0.044888
7.075301 0.065854 0.043193 0.003122 0.900000 0.043306
7.180120 0.065854 0.041845 0.002912 0.900000 0.041947
7.284940 0.065854 0.040881 0.002384 0.900000 0.040950
7.389759 0.065854 0.039900 0.002186 0.900000 0.039960
7.494578 0.065854 0.038501 0.001577 0.900000 0.038534
7.599398 0.065854 0.036992 0.001557 0.900000 0.037025
7.704217 0.065854 0.035682 0.001075 0.900000 0.035698
7.809036 0.065854 0.034220 0.000696 0.900000 0.034227
7.913855 0.065854 0.032334 -0.000011 0.900000 0.032334
8.018675 0.065854 0.029728 -0.000388 0.900000 0.029730
8.123494 0.065854 0.026585 -0.001709 0.900000 0.026640
8.228313 0.065854 0.022795 -0.001022 0.900000 0.022818
8.333133 0.065854 0.017763 -0.000575 0.900000 0.017773
8.437952 0.065854 0.011558 -0.000233 0.900000 0.011560
8.542771 0.065854 0.004071 -0.000076 0.900000 0.004072
8.647590 0.065854 0.000000 0.000000 0.000000 0.000000
0.052410 0.080488 0.000000 0.000000 0.000000 0.000000
0.157229 0.080488 -0.003413 0.005150 0.900000 0.006178
0.262048 0.080488 -0.010435 0.004984 0.900000 0.011565
0.366867 0.080488 -0.016806 0.004893 0.900000 0.017504
0.471687 0.080488 -0.021160 0.004919 0.900000 0.021724
0.576506 0.080488 -0.023428 0.005392 0.900000 0.024040
0.681325 0.080488 -0.023964 0.006073 0.900000 0.024722
0.786145 0.080488 -0.023686 0.006833 0.900000 0.024652
0.890964 0.080488 -0.023169 0.006893 0.900000 0.024173
0.995783 0.080488 -0.022677 0.006594 0.900000 0.023616
1.100602 0.080488 -0.021684 0.006192 0.900000 0.022551
1.205422 0.080488 -0.019647 0.006493 0.900000 0.020692
1.310241 0.080488 -0.016795 0.006510 0.900000 0.018012
1.415060 0.080488 -0.013517 0.007512 0.900000 0.015464
1.519880 0.080488 -0.010025 0.008145 0.900000 0.012917
1.624699 0.080488 -0.006658 0.007560 0.900000 0.010074
1.729518 0.080488 -0.003648 0.007402 0.900000 0.008252
1.834337 0.080488 0.000020 0.006761 0.900000 0.006761
1.939157 0.080488 0.004556 0.007292 0.900000 0.008599
2.043976 0.080488 0.009578 0.008303 0.900000 0.012676
2.148795 0.080488 0.012782 0.008185 0.900000 0.015178
2.253614 0.080488 0.013805 0.007836 0.900000 0.015874
2.358434 0.080488 0.015410 0.007135 0.900000 0.016981
2.463253 0.080488 0.017606 0.007707 0.900000 0.019219
2.568072 0.080488 0.019390 0.008486 0.900000 0.021165
2.672892 0.080488 0.020470 0.009398 0.900000 0.022525
2.777711 0.080488 0.020912 0.007597 0.900000 0.022250
2.882530 0.080488 0.021856 0.005498 0.900000 0.022537
2.987349 0.080488 0.023858 0.006645 0.900000 0.024766
3.092169 0.080488 0.026988 0.008406 0.900000 0.028266
3.196988 0.080488 0.030271 0.010042 0.900000 0.031893
3.301807 0.080488 0.033067 0.011951 0.900000 0.035161
3.406627 0.080488 0.036041 0.011629 0.900000 0.037870
3.511446 0.080488 0.039533 0.010631 0.900000 0.040938
3.616265 0.080488 0.043148 0.010803 0.900000 0.044480
3.721084 0.080488 0.046594 0.011377 0.900000 0.047963
3.825904 0.080488 0.049859 0.012848 0.900000 0.051487
3.930723 0.080488 0.054521 0.010129 0.900000 0.055454
4.035542 0.080488 0.059880 0.010034 0.900000 0.060715
4.140361 0.080488 0.064410 0.010374 0.900000 0.065240
4.245181 0.080488 0.068217 0.011585 0.900000 0.069194
4.350000 0.080488 0.071395 0.010883 0.900000 0.072220
4.454819 0.080488 0.074837 0.009984 0.900000 0.075501
4.559639 0.080488 0.075406 0.010171 0.900000 0.076089
4.664458 0.080488 0.073042 0.010203 0.900000 0.073751
4.769277 0.080488 0.072032 0.009013 0.900000 0.072593
4.874096 0.080488 0.073344 0.009000 0.900000 0.073894
4.978916 0.080488 0.074852 0.010243 0.900000 0.075549
5.083735 0.080488 0.075549 0.011516 0.900000 0.076421
5.188554 0.080488 0.074735 0.010145 0.900000 0.075420
5.293373 0.080488 0.072370 0.008196 0.900000 0.072833
5.398193 0.080488 0.070100 0.007906 0.900000 0.070544
5.503012 0.080488 0.068148 0.008708 0.900000 0.068703
5.607831 0.080488 0.066308 0.008243 0.900000 0.066818
5.712651 0.080488 0.063693 0.006570 0.900000 0.064031
5.817470 0.080488 0.061445 0.005708 0.900000 0.061710
5.922289 0.080488 0.059788 0.006977 0.900000 0.060194
6.027108 0.080488 0.057307 0.006880 0.900000 0.057718
6.131928 0.080488 0.054672 0.006510 0.900000 0.055058
6.236747 0.080488 0.051808 0.006200 0.900000 0.052177
6.341566 0.080488 0.048585 0.004862 0.900000 0.048828
6.446386 0.080488 0.046878 0.003277 0.900000 0.046992
6.551205 0.080488 0.047157 0.003827 0.900000 0.047312
6.656024 0.080488 0.047663 0.004654 0.900000 0.047890
6.760843 0.080488 0.047561 0.004934 0.900000 0.047816
6.865663 0.080488 0.046931 0.004163 0.900000 0.047116
6.970482 0.080488 0.045780 0.004197 0.900000 0.045972
7.075301 0.080488 0.044199 0.003492 0.900000 0.044337
7.180120 0.080488 0.042880 0.003195 0.900000 0.042998
7.284940 0.080488 0.041875 0.002561 0.900000 0.041953
7.389759 0.080488 0.040759 0.002385 0.900000 0.040829
7.494578 0.080488 0.039258 0.001695 0.900000 0.039295
7.599398 0.080488 0.037848 0.001625 0.900000 0.037882
7.704217 0.080488 0.036510 0.000989 0.900000 0.036523
7.809036 0.080488 0.034853 0.000576 0.900000 0.034858
7.913855 0.080488 0.032907 -0.000183 0.900000 0.032907
8.018675 0.080488 0.030270 -0.000579 0.900000 0.030275
8.123494 0.080488 0.026927 -0.002075 0.900000 0.027007
8.228313 0.080488 0.022882 -0.001278 0.900000 0.022917
8.333133 0.080488 0.017815 -0.000729 0.900000 0.017830
8.437952 0.080488 0.011589 -0.000291 0.900000 0.011593
8.542771 0.080488 0.004079 -0.000095 0.900000 0.004080
8.647590 0.080488 0.000000 0.000000 0.000000 0.000000
0.052410 0.095122 0.000000 0.000000 0.000000 0.000000
0.157229 0.095122 -0.003390 0.006286 0.900000 0.007142
0.262048 0.095122 -0.010360 0.006080 0.900000 0.012012
0.366867 0.095122 -0.016643 0.005923 0.900000 0.017666
0.471687 0.095122 -0.020945 0.005946 0.900000 0.021772
0.576506 0.095122 -0.022995 0.006498 0.900000 0.023896
0.681325 0.095122 -0.023501 0.007222 0.900000 0.024586
0.786145 0.095122 -0.023334 0.008013 0.900000 0.024671
0.890964 0.095122 -0.022740 0.008006 0.900000 0.024109
0.995783 0.095122 -0.022217 0.007840 0.900000 0.023560
1.100602 0.095122 -0.021203 0.007509 0.900000 0.022493
1.205422 0.095122 -0.019148 0.007857 0.900000 0.020697
1.310241 0.095122 -0.016286 0.007799 0.900000 0.018057
1.415060 0.095122 -0.013091 0.008838 0.900000 0.015795
1.519880 0.095122 -0.009465 0.009417 0.900000 0.013352
1.624699 0.095122 -0.006063 0.008998 0.900000 0.010850
1.729518 0.095122 -0.003272 0.008762 0.900000 0.009353
1.834337 0.095122 0.000320 0.008049 0.900000 0.008055
1.939157 0.095122 0.004860 0.008688 0.900000 0.009955
2.043976 0.095122 0.010168 0.009627 0.900000 0.014003
2.148795 0.095122 0.013408 0.009474 0.900000 0.016418
2.253614 0.095122 0.014170 0.009103 0.900000 0.016842
2.358434 0.095122 0.015698 0.008378 0.900000 0.017794
2.463253 0.095122 0.017887 0.008937 0.900000 0.019995
2.568072 0.095122 0.019897 0.009747 0.900000 0.022156
2.672892 0.095122 0.021328 0.010630 0.900000 0.023830
2.777711 0.095122 0.021739 0.008766 0.900000 0.023439
2.882530 0.095122 0.022292 0.006392 0.900000 0.023190
2.987349 0.095122 0.024220 0.007651 0.900000 0.025399
3.092169 0.095122 0.027569 0.009432 0.900000 0.029138
3.196988 0.095122 0.031009 0.011158 0.900000 0.032956
3.301807 0.095122 0.034143 0.013166 0.900000 0.036593
3.406627 0.095122 0.037166 0.012886 0.900000 0.039337
3.511446 0.095122 0.040470 0.011559 0.900000 0.042089
3.616265 0.095122 0.044198 0.011679 0.900000 0.045715
3.721084 0.095122 0.047893 0.012387 0.900000 0.049469
3.825904 0.095122 0.051534 0.014261 0.900000 0.053471
3.930723 0.095122 0.055814 0.011096 0.900000 0.056906
4.035542 0.095122 0.060674 0.010988 0.900000 0.061661
4.140361 0.095122 0.065544 0.011476 0.900000 0.066541
4.245181 0.095122 0.069609 0.012805 0.900000 0.070777
4.350000 0.095122 0.072655 0.011716 0.900000 0.073594
4.454819 0.095122 0.076523 0.010565 0.900000 0.077249
4.559639 0.095122 0.077250 0.011542 0.900000 0.078108
4.664458 0.095122 0.074346 0.011495 0.900000 0.075229
4.769277 0.095122 0.073587 0.009718 0.900000 0.074226
4.874096 0.095122 0.075276 0.009964 0.900000 0.075932
4.978916 0.095122 0.076676 0.011260 0.900000 0.077498
5.083735 0.095122 0.077304 0.012579 0.900000 0.078321
5.188554 0.095122 0.076485 0.011096 0.900000 0.077286
5.293373 0.095122 0.074170 0.009132 0.900000 0.074731
5.398193 0.095122 0.071937 0.008762 0.900000 0.072468
5.503012 0.095122 0.070008 0.009579 0.900000 0.070660