TITLE="(Vx,Vy)"
VARIABLES=X,Y,Vx,Vy,Vm,V
ZONE T="T-Dummy" I=83, J=41, F=POINT
0.052410 0.007317 0.000000 0.000000 0.000000 0.000000
0.157229 0.007317 0.000000 0.000000 0.000000 0.000000
0.262048 0.007317 0.000000 0.000000 0.000000 0.000000
0.366867 0.007317 0.000000 0.000000 0.000000 0.000000
0.471687 0.007317 0.000000 0.000000 0.000000 0.000000
0.576506 0.007317 0.000000 0.000000 0.000000 0.000000
0.681325 0.007317 0.000000 0.000000 0.000000 0.000000
0.786145 0.007317 0.000000 0.000000 0.000000 0.000000
0.890964 0.007317 0.000000 0.000000 0.000000 0.000000
0.995783 0.007317 0.000000 0.000000 0.000000 0.000000
1.100602 0.007317 0.000000 0.000000 0.000000 0.000000
1.205422 0.007317 0.000000 0.000000 0.000000 0.000000
1.310241 0.007317 0.000000 0.000000 0.000000 0.000000
1.415060 0.007317 0.000000 0.000000 0.000000 0.000000
1.519880 0.007317 0.000000 0.000000 0.000000 0.000000
1.624699 0.007317 0.000000 0.000000 0.000000 0.000000
1.729518 0.007317 0.000000 0.000000 0.000000 0.000000
1.834337 0.007317 0.000000 0.000000 0.000000 0.000000
1.939157 0.007317 0.000000 0.000000 0.000000 0.000000
2.043976 0.007317 0.000000 0.000000 0.000000 0.000000
2.148795 0.007317 0.000000 0.000000 0.000000 0.000000
2.253614 0.007317 0.000000 0.000000 0.000000 0.000000
2.358434 0.007317 0.000000 0.000000 0.000000 0.000000
2.463253 0.007317 0.000000 0.000000 0.000000 0.000000
2.568072 0.007317 0.000000 0.000000 0.000000 0.000000
2.672892 0.007317 0.000000 0.000000 0.000000 0.000000
2.777711 0.007317 0.000000 0.000000 0.000000 0.000000
2.882530 0.007317 0.000000 0.000000 0.000000 0.000000
2.987349 0.007317 0.000000 0.000000 0.000000 0.000000
3.092169 0.007317 0.000000 0.000000 0.000000 0.000000
3.196988 0.007317 0.000000 0.000000 0.000000 0.000000
3.301807 0.007317 0.000000 0.000000 0.000000 0.000000
3.406627 0.007317 0.000000 0.000000 0.000000 0.000000
3.511446 0.007317 0.000000 0.000000 0.000000 0.000000
3.616265 0.007317 0.000000 0.000000 0.000000 0.000000
3.721084 0.007317 0.000000 0.000000 0.000000 0.000000
3.825904 0.007317 0.000000 0.000000 0.000000 0.000000
3.930723 0.007317 0.000000 0.000000 0.000000 0.000000
4.035542 0.007317 0.000000 0.000000 0.000000 0.000000
4.140361 0.007317 0.000000 0.000000 0.000000 0.000000
4.245181 0.007317 0.000000 0.000000 0.000000 0.000000
4.350000 0.007317 0.000000 0.000000 0.000000 0.000000
4.454819 0.007317 0.000000 0.000000 0.000000 0.000000
4.559639 0.007317 0.000000 0.000000 0.000000 0.000000
4.664458 0.007317 0.000000 0.000000 0.000000 0.000000
4.769277 0.007317 0.000000 0.000000 0.000000 0.000000
4.874096 0.007317 0.000000 0.000000 0.000000 0.000000
4.978916 0.007317 0.000000 0.000000 0.000000 0.000000
5.083735 0.007317 0.000000 0.000000 0.000000 0.000000
5.188554 0.007317 0.000000 0.000000 0.000000 0.000000
5.293373 0.007317 0.000000 0.000000 0.000000 0.000000
5.398193 0.007317 0.000000 0.000000 0.000000 0.000000
5.503012 0.007317 0.000000 0.000000 0.000000 0.000000
5.607831 0.007317 0.000000 0.000000 0.000000 0.000000
5.712651 0.007317 0.000000 0.000000 0.000000 0.000000
5.817470 0.007317 0.000000 0.000000 0.000000 0.000000
5.922289 0.007317 0.000000 0.000000 0.000000 0.000000
6.027108 0.007317 0.000000 0.000000 0.000000 0.000000
6.131928 0.007317 0.000000 0.000000 0.000000 0.000000
6.236747 0.007317 0.000000 0.000000 0.000000 0.000000
6.341566 0.007317 0.000000 0.000000 0.000000 0.000000
6.446386 0.007317 0.000000 0.000000 0.000000 0.000000
6.551205 0.007317 0.000000 0.000000 0.000000 0.000000
6.656024 0.007317 0.000000 0.000000 0.000000 0.000000
6.760843 0.007317 0.000000 0.000000 0.000000 0.000000
6.865663 0.007317 0.000000 0.000000 0.000000 0.000000
6.970482 0.007317 0.000000 0.000000 0.000000 0.000000
7.075301 0.007317 0.000000 0.000000 0.000000 0.000000
7.180120 0.007317 0.000000 0.000000 0.000000 0.000000
7.284940 0.007317 0.000000 0.000000 0.000000 0.000000
7.389759 0.007317 0.000000 0.000000 0.000000 0.000000
7.494578 0.007317 0.000000 0.000000 0.000000 0.000000
7.599398 0.007317 0.000000 0.000000 0.000000 0.000000
7.704217 0.007317 0.000000 0.000000 0.000000 0.000000
7.809036 0.007317 0.000000 0.000000 0.000000 0.000000
7.913855 0.007317 0.000000 0.000000 0.000000 0.000000
8.018675 0.007317 0.000000 0.000000 0.000000 0.000000
8.123494 0.007317 0.000000 0.000000 0.000000 0.000000
8.228313 0.007317 0.000000 0.000000 0.000000 0.000000
8.333133 0.007317 0.000000 0.000000 0.000000 0.000000
8.437952 0.007317 0.000000 0.000000 0.000000 0.000000
8.542771 0.007317 0.000000 0.000000 0.000000 0.000000
8.647590 0.007317 0.000000 0.000000 0.000000 0.000000
0.052410 0.021951 0.000000 0.000000 0.000000 0.000000
0.157229 0.021951 0.001810 0.000043 0.900000 0.001811
0.262048 0.021951 0.005976 0.000054 0.900000 0.005976
0.366867 0.021951 0.011303 0.000063 0.900000 0.011303
0.471687 0.021951 0.017651 0.000136 0.900000 0.017652
0.576506 0.021951 0.024842 0.000379 0.900000 0.024845
0.681325 0.021951 0.026787 0.000455 0.900000 0.026791
0.786145 0.021951 0.022670 0.000326 0.900000 0.022672
0.890964 0.021951 0.021548 -0.000363 0.900000 0.021551
0.995783 0.021951 0.022903 0.000102 0.900000 0.022903
1.100602 0.021951 0.026273 -0.000086 0.900000 0.026274
1.205422 0.021951 0.030251 0.000491 0.900000 0.030255
1.310241 0.021951 0.031032 0.000230 0.900000 0.031033
1.415060 0.021951 0.033435 0.000215 0.900000 0.033435
1.519880 0.021951 0.030958 0.001086 0.900000 0.030977
1.624699 0.021951 0.029012 -0.000191 0.900000 0.029012
1.729518 0.021951 0.024643 0.001925 0.900000 0.024718
1.834337 0.021951 0.022355 -0.000401 0.900000 0.022358
1.939157 0.021951 0.031440 -0.000075 0.900000 0.031440
2.043976 0.021951 0.034308 0.000521 0.900000 0.034312
2.148795 0.021951 0.030170 0.000802 0.900000 0.030181
2.253614 0.021951 0.026650 0.001206 0.900000 0.026677
2.358434 0.021951 0.020755 0.001842 0.900000 0.020836
2.463253 0.021951 0.021388 -0.000319 0.900000 0.021390
2.568072 0.021951 0.033393 -0.000307 0.900000 0.033394
2.672892 0.021951 0.042057 0.000409 0.900000 0.042059
2.777711 0.021951 0.045600 0.000844 0.900000 0.045607
2.882530 0.021951 0.044249 0.001196 0.900000 0.044265
2.987349 0.021951 0.036120 0.001937 0.900000 0.036171
3.092169 0.021951 0.026342 0.001336 0.900000 0.026376
3.196988 0.021951 0.023926 0.000736 0.900000 0.023937
3.301807 0.021951 0.033590 0.000108 0.900000 0.033590
3.406627 0.021951 0.046987 0.001492 0.900000 0.047011
3.511446 0.021951 0.044965 0.003332 0.900000 0.045089
3.616265 0.021951 0.043185 0.000378 0.900000 0.043186
3.721084 0.021951 0.046818 0.002231 0.900000 0.046872
3.825904 0.021951 0.047052 0.001943 0.900000 0.047092
3.930723 0.021951 0.059300 0.000697 0.900000 0.059304
4.035542 0.021951 0.063101 0.002906 0.900000 0.063167
4.140361 0.021951 0.054782 0.001475 0.900000 0.054802
4.245181 0.021951 0.047700 0.002337 0.900000 0.047757
4.350000 0.021951 0.050874 0.000259 0.900000 0.050875
4.454819 0.021951 0.063138 0.001689 0.900000 0.063160
4.559639 0.021951 0.055099 0.003837 0.900000 0.055233
4.664458 0.021951 0.044929 0.001542 0.900000 0.044956
4.769277 0.021951 0.045647 0.001564 0.900000 0.045673
4.874096 0.021951 0.044912 0.001528 0.900000 0.044938
4.978916 0.021951 0.041808 0.001453 0.900000 0.041834
5.083735 0.021951 0.041840 0.001106 0.900000 0.041855
5.188554 0.021951 0.041351 0.001980 0.900000 0.041398
5.293373 0.021951 0.025641 0.002405 0.900000 0.025754
5.398193 0.021951 0.018690 0.000869 0.900000 0.018710
5.503012 0.021951 0.026735 0.000715 0.900000 0.026745
5.607831 0.021951 0.029230 0.001089 0.900000 0.029250
5.712651 0.021951 0.026195 0.001307 0.900000 0.026228
5.817470 0.021951 0.017037 0.002730 0.900000 0.017254
5.922289 0.021951 0.014781 0.000637 0.900000 0.014795
6.027108 0.021951 0.016196 0.001235 0.900000 0.016243
6.131928 0.021951 0.014921 0.000803 0.900000 0.014943
6.236747 0.021951 0.017603 0.001009 0.900000 0.017632
6.341566 0.021951 0.017445 0.001224 0.900000 0.017488
6.446386 0.021951 0.013868 0.001755 0.900000 0.013978
6.551205 0.021951 0.009788 0.001009 0.900000 0.009840
6.656024 0.021951 0.012026 0.000125 0.900000 0.012027
6.760843 0.021951 0.016207 0.000357 0.900000 0.016211
6.865663 0.021951 0.014889 0.000724 0.900000 0.014907
6.970482 0.021951 0.010223 0.001247 0.900000 0.010299
7.075301 0.021951 0.007043 0.000465 0.900000 0.007059
7.180120 0.021951 0.006560 0.000378 0.900000 0.006571
7.284940 0.021951 0.005623 0.000462 0.900000 0.005642
7.389759 0.021951 0.004484 0.000592 0.900000 0.004523
7.494578 0.021951 0.003060 0.000805 0.900000 0.003164
7.599398 0.021951 0.001431 0.000603 0.900000 0.001553
7.704217 0.021951 -0.000338 0.000461 0.900000 0.000571
7.809036 0.021951 0.000345 0.000019 0.900000 0.000346
7.913855 0.021951 0.004062 0.000054 0.900000 0.004062
8.018675 0.021951 -0.000085 0.001101 0.900000 0.001104
8.123494 0.021951 -0.007496 0.000989 0.900000 0.007561
8.228313 0.021951 -0.007983 0.000415 0.900000 0.007994
8.333133 0.021951 -0.005364 0.000221 0.900000 0.005369
8.437952 0.021951 -0.002669 0.000255 0.900000 0.002681
8.542771 0.021951 -0.000803 0.000291 0.900000 0.000854
8.647590 0.021951 0.000000 0.000000 0.000000 0.000000
0.052410 0.036585 0.000000 0.000000 0.000000 0.000000
0.157229 0.036585 0.001702 0.000139 0.900000 0.001708
0.262048 0.036585 0.005676 0.000164 0.900000 0.005678
0.366867 0.036585 0.010750 0.000183 0.900000 0.010751
0.471687 0.036585 0.016893 0.000358 0.900000 0.016897
0.576506 0.036585 0.022812 0.001169 0.900000 0.022842
0.681325 0.036585 0.019345 0.001216 0.900000 0.019383
0.786145 0.036585 0.013071 0.000058 0.900000 0.013071
0.890964 0.036585 0.009795 -0.001058 0.900000 0.009852
0.995783 0.036585 0.006997 -0.000155 0.900000 0.006999
1.100602 0.036585 0.008981 -0.000370 0.900000 0.008988
1.205422 0.036585 0.015856 0.000335 0.900000 0.015860
1.310241 0.036585 0.020268 0.000220 0.900000 0.020269
1.415060 0.036585 0.020605 0.000453 0.900000 0.020610
1.519880 0.036585 0.013758 0.003089 0.900000 0.014100
1.624699 0.036585 0.008084 -0.001109 0.900000 0.008160
1.729518 0.036585 0.015248 0.003394 0.900000 0.015621
1.834337 0.036585 0.020211 -0.001151 0.900000 0.020244
1.939157 0.036585 0.019209 -0.000233 0.900000 0.019210
2.043976 0.036585 0.014684 0.001092 0.900000 0.014725
2.148795 0.036585 0.006243 0.001894 0.900000 0.006524
2.253614 0.036585 0.000149 0.002791 0.900000 0.002795
2.358434 0.036585 0.010977 0.002124 0.900000 0.011181
2.463253 0.036585 0.020467 -0.001049 0.900000 0.020494
2.568072 0.036585 0.015359 -0.000630 0.900000 0.015372
2.672892 0.036585 0.010413 0.000885 0.900000 0.010450
2.777711 0.036585 0.008269 0.001641 0.900000 0.008430
2.882530 0.036585 0.002520 0.002912 0.900000 0.003851
2.987349 0.036585 -0.004959 0.003883 0.900000 0.006298
3.092169 0.036585 -0.010953 0.002988 0.900000 0.011353
3.196988 0.036585 -0.004674 -0.000141 0.900000 0.004676
3.301807 0.036585 0.000261 0.000861 0.900000 0.000900
3.406627 0.036585 0.005770 0.002100 0.900000 0.006141
3.511446 0.036585 0.019136 0.006692 0.900000 0.020272
3.616265 0.036585 0.013739 0.000959 0.900000 0.013772
3.721084 0.036585 0.002766 0.005253 0.900000 0.005937
3.825904 0.036585 0.019522 0.001416 0.900000 0.019573
3.930723 0.036585 0.042640 0.001152 0.900000 0.042655
4.035542 0.036585 0.046288 0.005517 0.900000 0.046616
4.140361 0.036585 0.039602 0.003550 0.900000 0.039760
4.245181 0.036585 0.037489 0.003369 0.900000 0.037640
4.350000 0.036585 0.038140 0.000427 0.900000 0.038143
4.454819 0.036585 0.029951 0.003721 0.900000 0.030181
4.559639 0.036585 0.026512 0.007654 0.900000 0.027595
4.664458 0.036585 0.021278 0.003487 0.900000 0.021562
4.769277 0.036585 0.014066 0.002984 0.900000 0.014379
4.874096 0.036585 0.010526 0.003000 0.900000 0.010945
4.978916 0.036585 0.004268 0.002141 0.900000 0.004775
5.083735 0.036585 0.008794 0.000361 0.900000 0.008802
5.188554 0.036585 0.017608 0.003826 0.900000 0.018019
5.293373 0.036585 0.012109 0.004632 0.900000 0.012964
5.398193 0.036585 0.009864 0.001351 0.900000 0.009956
5.503012 0.036585 0.013233 0.001477 0.900000 0.013315
5.607831 0.036585 0.010164 0.002114 0.900000 0.010381
5.712651 0.036585 0.001675 0.002997 0.900000 0.003434
5.817470 0.036585 0.004856 0.004611 0.900000 0.006696
5.922289 0.036585 0.011557 0.001301 0.900000 0.011630
6.027108 0.036585 0.003618 0.002673 0.900000 0.004498
6.131928 0.036585 -0.005964 0.001770 0.900000 0.006221
6.236747 0.036585 -0.004608 0.000976 0.900000 0.004711
6.341566 0.036585 -0.000999 0.002321 0.900000 0.002527
6.446386 0.036585 -0.004177 0.004263 0.900000 0.005969
6.551205 0.036585 0.001908 0.000633 0.900000 0.002010
6.656024 0.036585 0.009178 0.000117 0.900000 0.009179
6.760843 0.036585 0.006076 0.000499 0.900000 0.006096
6.865663 0.036585 0.000012 0.001584 0.900000 0.001584
6.970482 0.036585 -0.004771 0.002734 0.900000 0.005499
7.075301 0.036585 -0.003707 0.000384 0.900000 0.003727
7.180120 0.036585 -0.003089 0.000575 0.900000 0.003142
7.284940 0.036585 -0.005863 0.000949 0.900000 0.005940
7.389759 0.036585 -0.007971 0.001257 0.900000 0.008069
7.494578 0.036585 -0.006826 0.001447 0.900000 0.006977
7.599398 0.036585 -0.004346 0.001142 0.900000 0.004493
7.704217 0.036585 -0.002804 0.000593 0.900000 0.002866
7.809036 0.036585 -0.003099 -0.000153 0.900000 0.003102
7.913855 0.036585 -0.008328 0.000513 0.900000 0.008344
8.018675 0.036585 -0.014257 0.001857 0.900000 0.014377
8.123494 0.036585 -0.012324 0.002101 0.900000 0.012502
8.228313 0.036585 -0.007631 0.001162 0.900000 0.007719
8.333133 0.036585 -0.005030 0.000652 0.900000 0.005072
8.437952 0.036585 -0.002495 0.000744 0.900000 0.002604
8.542771 0.036585 -0.000713 0.000876 0.900000 0.001129
8.647590 0.036585 0.000000 0.000000 0.000000 0.000000
0.052410 0.051220 0.000000 0.000000 0.000000 0.000000
0.157229 0.051220 0.001590 0.000258 0.900000 0.001610
0.262048 0.051220 0.005363 0.000275 0.900000 0.005370
0.366867 0.051220 0.010181 0.000296 0.900000 0.010185
0.471687 0.051220 0.016024 0.000493 0.900000 0.016031
0.576506 0.051220 0.021754 0.001862 0.900000 0.021834
0.681325 0.051220 0.018757 0.001848 0.900000 0.018848
0.786145 0.051220 0.012870 -0.001062 0.900000 0.012914
0.890964 0.051220 0.009258 -0.001520 0.900000 0.009382
0.995783 0.051220 0.006274 -0.000904 0.900000 0.006338
1.100602 0.051220 0.008692 -0.000845 0.900000 0.008733
1.205422 0.051220 0.015185 -0.000954 0.900000 0.015215
1.310241 0.051220 0.018967 -0.000315 0.900000 0.018970
1.415060 0.051220 0.019005 0.000540 0.900000 0.019013
1.519880 0.051220 0.018589 0.003943 0.900000 0.019002
1.624699 0.051220 0.013622 -0.001738 0.900000 0.013733
1.729518 0.051220 0.013727 0.002579 0.900000 0.013967
1.834337 0.051220 0.018395 -0.001821 0.900000 0.018485
1.939157 0.051220 0.017714 -0.000389 0.900000 0.017718
2.043976 0.051220 0.012722 0.001198 0.900000 0.012778
2.148795 0.051220 0.003791 0.002470 0.900000 0.004525
2.253614 0.051220 -0.001874 0.003596 0.900000 0.004055
2.358434 0.051220 0.009179 -0.001024 0.900000 0.009236
2.463253 0.051220 0.017984 -0.001808 0.900000 0.018075
2.568072 0.051220 0.012473 -0.000681 0.900000 0.012492
2.672892 0.051220 0.007396 0.000956 0.900000 0.007458
2.777711 0.051220 0.005161 0.001505 0.900000 0.005376
2.882530 0.051220 -0.000159 0.004053 0.900000 0.004056
2.987349 0.051220 -0.008136 0.003934 0.900000 0.009038
3.092169 0.051220 -0.014505 0.003480 0.900000 0.014917
3.196988 0.051220 -0.006912 -0.003137 0.900000 0.007590
3.301807 0.051220 -0.005361 0.002652 0.900000 0.005981
3.406627 0.051220 -0.001787 -0.000028 0.900000 0.001787
3.511446 0.051220 0.016537 0.006026 0.900000 0.017601
3.616265 0.051220 0.012733 0.002012 0.900000 0.012891
3.721084 0.051220 0.000116 0.006782 0.900000 0.006783
3.825904 0.051220 0.015685 -0.003433 0.900000 0.016056
3.930723 0.051220 0.037690 0.000645 0.900000 0.037696
4.035542 0.051220 0.041887 0.004617 0.900000 0.042141
4.140361 0.051220 0.036296 0.004597 0.900000 0.036586
4.245181 0.051220 0.034145 0.000678 0.900000 0.034152
4.350000 0.051220 0.034686 0.000161 0.900000 0.034686
4.454819 0.051220 0.026210 0.004234 0.900000 0.026550
4.559639 0.051220 0.023176 0.007696 0.900000 0.024421
4.664458 0.051220 0.019347 0.004076 0.900000 0.019772
4.769277 0.051220 0.012679 0.002630 0.900000 0.012949
4.874096 0.051220 0.008439 0.002883 0.900000 0.008918
4.978916 0.051220 0.002829 0.000896 0.900000 0.002967
5.083735 0.051220 0.007586 -0.003343 0.900000 0.008290
5.188554 0.051220 0.015281 0.003418 0.900000 0.015659
5.293373 0.051220 0.009658 0.004151 0.900000 0.010512
5.398193 0.051220 0.007212 0.000578 0.900000 0.007235
5.503012 0.051220 0.010710 0.001509 0.900000 0.010816
5.607831 0.051220 0.007815 0.002028 0.900000 0.008073
5.712651 0.051220 -0.000708 0.003823 0.900000 0.003888
5.817470 0.051220 0.003146 0.002830 0.900000 0.004231
5.922289 0.051220 0.010297 0.001439 0.900000 0.010397
6.027108 0.051220 0.001840 0.003159 0.900000 0.003656
6.131928 0.051220 -0.004065 0.001553 0.900000 0.004352
6.236747 0.051220 -0.002421 -0.000722 0.900000 0.002527
6.341566 0.051220 -0.002366 0.002295 0.900000 0.003296
6.446386 0.051220 -0.005929 0.005820 0.900000 0.008308
6.551205 0.051220 0.000421 -0.002258 0.900000 0.002297
6.656024 0.051220 0.008132 -0.000146 0.900000 0.008133
6.760843 0.051220 0.004654 0.000056 0.900000 0.004655
6.865663 0.051220 -0.001470 0.001774 0.900000 0.002304
6.970482 0.051220 -0.006106 0.003209 0.900000 0.006898
7.075301 0.051220 -0.004678 -0.000764 0.900000 0.004740
7.180120 0.051220 -0.003837 0.000170 0.900000 0.003841
7.284940 0.051220 -0.006544 0.001072 0.900000 0.006631
7.389759 0.051220 -0.008523 0.001359 0.900000 0.008631
7.494578 0.051220 -0.007338 0.001179 0.900000 0.007432
7.599398 0.051220 -0.004961 0.001006 0.900000 0.005062
7.704217 0.051220 -0.003644 -0.000078 0.900000 0.003645
7.809036 0.051220 -0.003936 -0.000583 0.900000 0.003979
7.913855 0.051220 -0.008527 0.001259 0.900000 0.008619
8.018675 0.051220 -0.012973 0.001089 0.900000 0.013019
8.123494 0.051220 -0.011207 0.002358 0.900000 0.011452
8.228313 0.051220 -0.007437 0.001732 0.900000 0.007636
8.333133 0.051220 -0.004716 0.001058 0.900000 0.004834
8.437952 0.051220 -0.002299 0.001196 0.900000 0.002592
8.542771 0.051220 -0.000620 0.001469 0.900000 0.001594
8.647590 0.051220 0.000000 0.000000 0.000000 0.000000
0.052410 0.065854 0.000000 0.000000 0.000000 0.000000
0.157229 0.065854 0.001473 0.000401 0.900000 0.001526
0.262048 0.065854 0.005036 0.000391 0.900000 0.005051
0.366867 0.065854 0.009874 0.000369 0.900000 0.009881
0.471687 0.065854 0.015480 0.000589 0.900000 0.015491
0.576506 0.065854 0.020990 0.002295 0.900000 0.021115
0.681325 0.065854 0.018206 0.002557 0.900000 0.018385
0.786145 0.065854 0.012554 -0.002080 0.900000 0.012725
0.890964 0.065854 0.008861 -0.001637 0.900000 0.009011
0.995783 0.065854 0.005787 -0.001554 0.900000 0.005992
1.100602 0.065854 0.008478 -0.001433 0.900000 0.008599
1.205422 0.065854 0.014511 -0.002077 0.900000 0.014659
1.310241 0.065854 0.017782 -0.000823 0.900000 0.017801
1.415060 0.065854 0.017785 0.000657 0.900000 0.017797
1.519880 0.065854 0.021213 0.003263 0.900000 0.021463
1.624699 0.065854 0.014602 -0.000794 0.900000 0.014623
1.729518 0.065854 0.011528 0.001518 0.900000 0.011627
1.834337 0.065854 0.017715 -0.002386 0.900000 0.017875
1.939157 0.065854 0.016025 -0.000540 0.900000 0.016034
2.043976 0.065854 0.010857 0.001314 0.900000 0.010936
2.148795 0.065854 0.001991 0.003014 0.900000 0.003613
2.253614 0.065854 -0.004059 0.004701 0.900000 0.006211
2.358434 0.065854 0.006820 -0.004328 0.900000 0.008077
2.463253 0.065854 0.015641 -0.002356 0.900000 0.015818
2.568072 0.065854 0.009903 -0.000790 0.900000 0.009934
2.672892 0.065854 0.005006 0.001156 0.900000 0.005138
2.777711 0.065854 0.002924 0.001279 0.900000 0.003192
2.882530 0.065854 -0.001724 0.005212 0.900000 0.005490
2.987349 0.065854 -0.009263 0.003948 0.900000 0.010069
3.092169 0.065854 -0.006931 0.002627 0.900000 0.007412
3.196988 0.065854 0.001015 -0.004827 0.900000 0.004933
3.301807 0.065854 -0.002328 0.004444 0.900000 0.005017
3.406627 0.065854 0.000058 -0.001940 0.900000 0.001941
3.511446 0.065854 0.016088 0.004140 0.900000 0.016612
3.616265 0.065854 0.012956 0.004228 0.900000 0.013629
3.721084 0.065854 0.011767 0.006391 0.900000 0.013390
3.825904 0.065854 0.028515 -0.006523 0.900000 0.029251
3.930723 0.065854 0.036598 0.000342 0.900000 0.036599
4.035542 0.065854 0.038768 0.003721 0.900000 0.038946
4.140361 0.065854 0.032980 0.005427 0.900000 0.033424
4.245181 0.065854 0.031362 -0.002265 0.900000 0.031444
4.350000 0.065854 0.032145 -0.000226 0.900000 0.032146
4.454819 0.065854 0.023078 0.004455 0.900000 0.023504
4.559639 0.065854 0.020194 0.007748 0.900000 0.021629
4.664458 0.065854 0.017990 0.004300 0.900000 0.018496
4.769277 0.065854 0.012026 0.002292 0.900000 0.012242
4.874096 0.065854 0.007271 0.002692 0.900000 0.007754
4.978916 0.065854 0.001235 0.000308 0.900000 0.001273
5.083735 0.065854 0.006037 -0.006780 0.900000 0.009078
5.188554 0.065854 0.013536 0.002869 0.900000 0.013837
5.293373 0.065854 0.007362 0.003466 0.900000 0.008137
5.398193 0.065854 0.004829 0.000159 0.900000 0.004832
5.503012 0.065854 0.008443 0.001357 0.900000 0.008551
5.607831 0.065854 0.006108 0.002007 0.900000 0.006429
5.712651 0.065854 -0.002220 0.004725 0.900000 0.005221
5.817470 0.065854 0.001402 0.001039 0.900000 0.001745
5.922289 0.065854 0.008708 0.001585 0.900000 0.008851
6.027108 0.065854 0.000398 0.003733 0.900000 0.003754
6.131928 0.065854 -0.001974 0.000264 0.900000 0.001992
6.236747 0.065854 0.000044 -0.001612 0.900000 0.001613
6.341566 0.065854 -0.002117 0.002420 0.900000 0.003215
6.446386 0.065854 0.001471 0.006599 0.900000 0.006761
6.551205 0.065854 0.006919 -0.004331 0.900000 0.008163
6.656024 0.065854 0.007297 -0.000419 0.900000 0.007309
6.760843 0.065854 0.003439 -0.000228 0.900000 0.003446
6.865663 0.065854 -0.002513 0.001795 0.900000 0.003088
6.970482 0.065854 -0.006752 0.003677 0.900000 0.007688
7.075301 0.065854 -0.005159 -0.002008 0.900000 0.005536
7.180120 0.065854 -0.004590 -0.000270 0.900000 0.004598
7.284940 0.065854 -0.007249 0.001200 0.900000 0.007348
7.389759 0.065854 -0.008889 0.001385 0.900000 0.008997
7.494578 0.065854 -0.007627 0.001048 0.900000 0.007698
7.599398 0.065854 -0.005457 0.000868 0.900000 0.005525
7.704217 0.065854 -0.004297 -0.000780 0.900000 0.004367
7.809036 0.065854 -0.004469 -0.000969 0.900000 0.004573
7.913855 0.065854 -0.006850 0.001655 0.900000 0.007047
8.018675 0.065854 -0.010060 0.000418 0.900000 0.010069
8.123494 0.065854 -0.010191 0.002659 0.900000 0.010532
8.228313 0.065854 -0.007273 0.002130 0.900000 0.007579
8.333133 0.065854 -0.004448 0.001424 0.900000 0.004670
8.437952 0.065854 -0.002082 0.001614 0.900000 0.002635
8.542771 0.065854 -0.000514 0.002073 0.900000 0.002136
8.647590 0.065854 0.000000 0.000000 0.000000 0.000000
0.052410 0.080488 0.000000 0.000000 0.000000 0.000000
0.157229 0.080488 0.001347 0.000570 0.900000 0.001463
0.262048 0.080488 0.004698 0.000512 0.900000 0.004726
0.366867 0.080488 0.009714 0.000345 0.900000 0.009721
0.471687 0.080488 0.015187 0.000692 0.900000 0.015202
0.576506 0.080488 0.020250 0.002518 0.900000 0.020406
0.681325 0.080488 0.017434 0.003387 0.900000 0.017760
0.786145 0.080488 0.012159 -0.003111 0.900000 0.012550
0.890964 0.080488 0.009929 -0.001798 0.900000 0.010091
0.995783 0.080488 0.007685 -0.001879 0.900000 0.007911
1.100602 0.080488 0.009151 -0.001951 0.900000 0.009357
1.205422 0.080488 0.013797 -0.002907 0.900000 0.014100
1.310241 0.080488 0.016553 -0.001159 0.900000 0.016593
1.415060 0.080488 0.016356 0.000751 0.900000 0.016373
1.519880 0.080488 0.019332 0.002080 0.900000 0.019443
1.624699 0.080488 0.011583 0.000983 0.900000 0.011624
1.729518 0.080488 0.009756 -0.000066 0.900000 0.009756
1.834337 0.080488 0.017025 -0.002788 0.900000 0.017252
1.939157 0.080488 0.014268 -0.000697 0.900000 0.014285
2.043976 0.080488 0.008835 0.001451 0.900000 0.008954
2.148795 0.080488 0.000567 0.003428 0.900000 0.003474
2.253614 0.080488 -0.006013 0.006212 0.900000 0.008646
2.358434 0.080488 0.004251 -0.007942 0.900000 0.009008
2.463253 0.080488 0.013374 -0.002585 0.900000 0.013621
2.568072 0.080488 0.007550 -0.000988 0.900000 0.007614
2.672892 0.080488 0.002768 0.001788 0.900000 0.003295
2.777711 0.080488 0.000997 0.000898 0.900000 0.001342
2.882530 0.080488 -0.002273 0.006162 0.900000 0.006568
2.987349 0.080488 -0.009854 0.003863 0.900000 0.010584
3.092169 0.080488 0.000021 -0.000351 0.900000 0.000352
3.196988 0.080488 0.008637 -0.004471 0.900000 0.009725
3.301807 0.080488 0.000317 0.005371 0.900000 0.005380
3.406627 0.080488 0.001663 -0.002988 0.900000 0.003419
3.511446 0.080488 0.013449 0.001863 0.900000 0.013577
3.616265 0.080488 0.010433 0.006837 0.900000 0.012474
3.721084 0.080488 0.021005 0.002572 0.900000 0.021162
3.825904 0.080488 0.038890 -0.006580 0.900000 0.039443
3.930723 0.080488 0.035408 0.000427 0.900000 0.035411
4.035542 0.080488 0.036484 0.003400 0.900000 0.036642
4.140361 0.080488 0.030161 0.006269 0.900000 0.030806
4.245181 0.080488 0.028357 -0.005570 0.900000 0.028899
4.350000 0.080488 0.029660 -0.000796 0.900000 0.029671
4.454819 0.080488 0.020152 0.004888 0.900000 0.020736
4.559639 0.080488 0.017379 0.007679 0.900000 0.019000
4.664458 0.080488 0.016687 0.004354 0.900000 0.017245
4.769277 0.080488 0.011668 0.002070 0.900000 0.011851
4.874096 0.080488 0.007133 0.002319 0.900000 0.007500
4.978916 0.080488 0.000470 0.000132 0.900000 0.000488
5.083735 0.080488 0.004830 -0.009730 0.900000 0.010863
5.188554 0.080488 0.011443 0.002424 0.900000 0.011697
5.293373 0.080488 0.004544 0.002528 0.900000 0.005200
5.398193 0.080488 0.002999 0.000395 0.900000 0.003025
5.503012 0.080488 0.006696 0.001032 0.900000 0.006775
5.607831 0.080488 0.004547 0.002005 0.900000 0.004969
5.712651 0.080488 -0.003805 0.005725 0.900000 0.006874
5.817470 0.080488 -0.000459 -0.000629 0.900000 0.000779
5.922289 0.080488 0.007222 0.001568 0.900000 0.007390
6.027108 0.080488 -0.001215 0.004361 0.900000 0.004527
6.131928 0.080488 -0.003843 -0.001678 0.900000 0.004194
6.236747 0.080488 -0.001422 -0.001980 0.900000 0.002438
6.341566 0.080488 -0.002060 0.002203 0.900000 0.003016
6.446386 0.080488 0.009165 0.005712 0.900000 0.010800
6.551205 0.080488 0.013569 -0.004474 0.900000 0.014288
6.656024 0.080488 0.006334 -0.000759 0.900000 0.006380
6.760843 0.080488 0.002582 -0.000215 0.900000 0.002591
6.865663 0.080488 -0.003118 0.001749 0.900000 0.003575
6.970482 0.080488 -0.007404 0.004172 0.900000 0.008498
7.075301 0.080488 -0.005690 -0.003377 0.900000 0.006617
7.180120 0.080488 -0.005204 -0.000497 0.900000 0.005227
7.284940 0.080488 -0.007880 0.001195 0.900000 0.007970
7.389759 0.080488 -0.009289 0.001353 0.900000 0.009387
7.494578 0.080488 -0.008049 0.000993 0.900000 0.008110
7.599398 0.080488 -0.006279 0.000836 0.900000 0.006334
7.704217 0.080488 -0.005209 -0.001533 0.900000 0.005430
7.809036 0.080488 -0.004958 -0.001108 0.900000 0.005080
7.913855 0.080488 -0.005617 0.001557 0.900000 0.005829
8.018675 0.080488 -0.008505 0.000223 0.900000 0.008508
8.123494 0.080488 -0.009887 0.002918 0.900000 0.010309
8.228313 0.080488 -0.006994 0.002398 0.900000 0.007394
8.333133 0.080488 -0.004178 0.001740 0.900000 0.004526
8.437952 0.080488 -0.001842 0.002002 0.900000 0.002720
8.542771 0.080488 -0.000394 0.002693 0.900000 0.002722
8.647590 0.080488 0.000000 0.000000 0.000000 0.000000
0.052410 0.095122 0.000000 0.000000 0.000000 0.000000
0.157229 0.095122 0.001213 0.000769 0.900000 0.001436
0.262048 0.095122 0.004340 0.000638 0.900000 0.004387
0.366867 0.095122 0.009252 0.000243 0.900000 0.009255
0.471687 0.095122 0.014593 0.000779 0.900000 0.014613
0.576506 0.095122 0.019549 0.002584 0.900000 0.019719
0.681325 0.095122 0.016569 0.004320 0.900000 0.017123
0.786145 0.095122 0.011751 -0.004253 0.900000 0.012497
0.890964 0.095122 0.011046 -0.002297 0.900000 0.011282
0.995783 0.095122 0.009323 -0.001963 0.900000 0.009528
1.100602 0.095122 0.009794 -0.002299 0.900000 0.010060
1.205422 0.095122 0.013326 -0.003560 0.900000 0.013794
1.310241 0.095122 0.015449 -0.001416 0.900000 0.015513
1.415060 0.095122 0.014885 0.000842 0.900000 0.014909
1.519880 0.095122 0.017277 0.000992 0.900000 0.017305
1.624699 0.095122 0.012300 0.002394 0.900000 0.012531
1.729518 0.095122 0.010803 -0.001356 0.900000 0.010887
1.834337 0.095122 0.015334 -0.003151 0.900000 0.015654
1.939157 0.095122 0.012536 -0.000852 0.900000 0.012565
2.043976 0.095122 0.006902 0.001623 0.900000 0.007090
2.148795 0.095122 -0.000643 0.003768 0.900000 0.003822
2.253614 0.095122 -0.007742 0.008031 0.900000 0.011155
2.358434 0.095122 0.001893 -0.011945 0.900000 0.012094
2.463253 0.095122 0.011153 -0.002517 0.900000 0.011434
2.568072 0.095122 0.005251 -0.001334 0.900000 0.005418
2.672892 0.095122 0.000932 0.002664 0.900000 0.002822
2.777711 0.095122 -0.000359 0.000321 0.900000 0.000482
2.882530 0.095122 -0.002526 0.006893 0.900000 0.007341
2.987349 0.095122 -0.010749 0.003857 0.900000 0.011420
3.092169 0.095122 -0.002716 -0.003932 0.900000 0.004779
3.196988 0.095122 0.006545 -0.003406 0.900000 0.007378
3.301807 0.095122 -0.001477 0.006091 0.900000 0.006268
3.406627 0.095122 -0.000633 -0.004069 0.900000 0.004118
3.511446 0.095122 0.011285 0.000081 0.900000 0.011285
3.616265 0.095122 0.007315 0.009369 0.900000 0.011887
3.721084 0.095122 0.015902 -0.002587 0.900000 0.016111
3.825904 0.095122 0.034201 -0.005587 0.900000 0.034654
3.930723 0.095122 0.032822 0.000602 0.900000 0.032827
4.035542 0.095122 0.034548 0.003223 0.900000 0.034698
4.140361 0.095122 0.027995 0.007207 0.900000 0.028908
4.245181 0.095122 0.025890 -0.009136 0.900000 0.027455
4.350000 0.095122 0.027354 -0.001712 0.900000 0.027407
4.454819 0.095122 0.018063 0.005926 0.900000 0.019010
4.559639 0.095122 0.015478 0.007556 0.900000 0.017224
4.664458 0.095122 0.015779 0.004242 0.900000 0.016339
4.769277 0.095122 0.011791 0.001860 0.900000 0.011937
4.874096 0.095122 0.007341 0.002147 0.900000 0.007649
4.978916 0.095122 0.001647 -0.000260 0.900000 0.001667
5.083735 0.095122 0.005608 -0.012447 0.900000 0.013652
5.188554 0.095122 0.009440 0.002191 0.900000 0.009691
5.293373 0.095122 0.001216 0.001335 0.900000 0.001805