TITLE="(Vx,Vy)"
VARIABLES=X,Y,Vx,Vy,Vm,V
ZONE T="T-Dummy" I=83, J=41, F=POINT
0.052410 0.007317 0.000000 0.000000 0.000000 0.000000
0.157229 0.007317 0.000000 0.000000 0.000000 0.000000
0.262048 0.007317 0.000000 0.000000 0.000000 0.000000
0.366867 0.007317 0.000000 0.000000 0.000000 0.000000
0.471687 0.007317 0.000000 0.000000 0.000000 0.000000
0.576506 0.007317 0.000000 0.000000 0.000000 0.000000
0.681325 0.007317 0.000000 0.000000 0.000000 0.000000
0.786145 0.007317 0.000000 0.000000 0.000000 0.000000
0.890964 0.007317 0.000000 0.000000 0.000000 0.000000
0.995783 0.007317 0.000000 0.000000 0.000000 0.000000
1.100602 0.007317 0.000000 0.000000 0.000000 0.000000
1.205422 0.007317 0.000000 0.000000 0.000000 0.000000
1.310241 0.007317 0.000000 0.000000 0.000000 0.000000
1.415060 0.007317 0.000000 0.000000 0.000000 0.000000
1.519880 0.007317 0.000000 0.000000 0.000000 0.000000
1.624699 0.007317 0.000000 0.000000 0.000000 0.000000
1.729518 0.007317 0.000000 0.000000 0.000000 0.000000
1.834337 0.007317 0.000000 0.000000 0.000000 0.000000
1.939157 0.007317 0.000000 0.000000 0.000000 0.000000
2.043976 0.007317 0.000000 0.000000 0.000000 0.000000
2.148795 0.007317 0.000000 0.000000 0.000000 0.000000
2.253614 0.007317 0.000000 0.000000 0.000000 0.000000
2.358434 0.007317 0.000000 0.000000 0.000000 0.000000
2.463253 0.007317 0.000000 0.000000 0.000000 0.000000
2.568072 0.007317 0.000000 0.000000 0.000000 0.000000
2.672892 0.007317 0.000000 0.000000 0.000000 0.000000
2.777711 0.007317 0.000000 0.000000 0.000000 0.000000
2.882530 0.007317 0.000000 0.000000 0.000000 0.000000
2.987349 0.007317 0.000000 0.000000 0.000000 0.000000
3.092169 0.007317 0.000000 0.000000 0.000000 0.000000
3.196988 0.007317 0.000000 0.000000 0.000000 0.000000
3.301807 0.007317 0.000000 0.000000 0.000000 0.000000
3.406627 0.007317 0.000000 0.000000 0.000000 0.000000
3.511446 0.007317 0.000000 0.000000 0.000000 0.000000
3.616265 0.007317 0.000000 0.000000 0.000000 0.000000
3.721084 0.007317 0.000000 0.000000 0.000000 0.000000
3.825904 0.007317 0.000000 0.000000 0.000000 0.000000
3.930723 0.007317 0.000000 0.000000 0.000000 0.000000
4.035542 0.007317 0.000000 0.000000 0.000000 0.000000
4.140361 0.007317 0.000000 0.000000 0.000000 0.000000
4.245181 0.007317 0.000000 0.000000 0.000000 0.000000
4.350000 0.007317 0.000000 0.000000 0.000000 0.000000
4.454819 0.007317 0.000000 0.000000 0.000000 0.000000
4.559639 0.007317 0.000000 0.000000 0.000000 0.000000
4.664458 0.007317 0.000000 0.000000 0.000000 0.000000
4.769277 0.007317 0.000000 0.000000 0.000000 0.000000
4.874096 0.007317 0.000000 0.000000 0.000000 0.000000
4.978916 0.007317 0.000000 0.000000 0.000000 0.000000
5.083735 0.007317 0.000000 0.000000 0.000000 0.000000
5.188554 0.007317 0.000000 0.000000 0.000000 0.000000
5.293373 0.007317 0.000000 0.000000 0.000000 0.000000
5.398193 0.007317 0.000000 0.000000 0.000000 0.000000
5.503012 0.007317 0.000000 0.000000 0.000000 0.000000
5.607831 0.007317 0.000000 0.000000 0.000000 0.000000
5.712651 0.007317 0.000000 0.000000 0.000000 0.000000
5.817470 0.007317 0.000000 0.000000 0.000000 0.000000
5.922289 0.007317 0.000000 0.000000 0.000000 0.000000
6.027108 0.007317 0.000000 0.000000 0.000000 0.000000
6.131928 0.007317 0.000000 0.000000 0.000000 0.000000
6.236747 0.007317 0.000000 0.000000 0.000000 0.000000
6.341566 0.007317 0.000000 0.000000 0.000000 0.000000
6.446386 0.007317 0.000000 0.000000 0.000000 0.000000
6.551205 0.007317 0.000000 0.000000 0.000000 0.000000
6.656024 0.007317 0.000000 0.000000 0.000000 0.000000
6.760843 0.007317 0.000000 0.000000 0.000000 0.000000
6.865663 0.007317 0.000000 0.000000 0.000000 0.000000
6.970482 0.007317 0.000000 0.000000 0.000000 0.000000
7.075301 0.007317 0.000000 0.000000 0.000000 0.000000
7.180120 0.007317 0.000000 0.000000 0.000000 0.000000
7.284940 0.007317 0.000000 0.000000 0.000000 0.000000
7.389759 0.007317 0.000000 0.000000 0.000000 0.000000
7.494578 0.007317 0.000000 0.000000 0.000000 0.000000
7.599398 0.007317 0.000000 0.000000 0.000000 0.000000
7.704217 0.007317 0.000000 0.000000 0.000000 0.000000
7.809036 0.007317 0.000000 0.000000 0.000000 0.000000
7.913855 0.007317 0.000000 0.000000 0.000000 0.000000
8.018675 0.007317 0.000000 0.000000 0.000000 0.000000
8.123494 0.007317 0.000000 0.000000 0.000000 0.000000
8.228313 0.007317 0.000000 0.000000 0.000000 0.000000
8.333133 0.007317 0.000000 0.000000 0.000000 0.000000
8.437952 0.007317 0.000000 0.000000 0.000000 0.000000
8.542771 0.007317 0.000000 0.000000 0.000000 0.000000
8.647590 0.007317 0.000000 0.000000 0.000000 0.000000
0.052410 0.021951 0.000000 0.000000 0.000000 0.000000
0.157229 0.021951 -0.000094 0.000273 0.900000 0.000288
0.262048 0.021951 0.000440 0.000177 0.900000 0.000474
0.366867 0.021951 0.001966 0.000164 0.900000 0.001973
0.471687 0.021951 0.002449 0.000440 0.900000 0.002489
0.576506 0.021951 0.006669 -0.000290 0.900000 0.006675
0.681325 0.021951 0.011730 -0.000053 0.900000 0.011730
0.786145 0.021951 0.009849 0.000614 0.900000 0.009869
0.890964 0.021951 0.008058 0.000288 0.900000 0.008063
0.995783 0.021951 0.010043 -0.000026 0.900000 0.010043
1.100602 0.021951 0.013065 -0.000001 0.900000 0.013065
1.205422 0.021951 0.015578 0.000061 0.900000 0.015578
1.310241 0.021951 0.016269 0.000158 0.900000 0.016270
1.415060 0.021951 0.016117 0.000359 0.900000 0.016121
1.519880 0.021951 0.017513 0.000156 0.900000 0.017514
1.624699 0.021951 0.019433 0.000148 0.900000 0.019434
1.729518 0.021951 0.020811 0.000254 0.900000 0.020813
1.834337 0.021951 0.021976 0.000206 0.900000 0.021977
1.939157 0.021951 0.019634 0.000978 0.900000 0.019658
2.043976 0.021951 0.017128 0.001052 0.900000 0.017160
2.148795 0.021951 0.021581 0.000259 0.900000 0.021583
2.253614 0.021951 0.025018 0.000658 0.900000 0.025026
2.358434 0.021951 0.024584 0.000369 0.900000 0.024586
2.463253 0.021951 0.028375 0.000366 0.900000 0.028378
2.568072 0.021951 0.032223 0.001003 0.900000 0.032239
2.672892 0.021951 0.035341 0.000338 0.900000 0.035342
2.777711 0.021951 0.039584 0.000485 0.900000 0.039587
2.882530 0.021951 0.035008 0.001415 0.900000 0.035037
2.987349 0.021951 0.026948 0.001502 0.900000 0.026990
3.092169 0.021951 0.025949 0.001187 0.900000 0.025976
3.196988 0.021951 0.031870 0.000242 0.900000 0.031871
3.301807 0.021951 0.040227 0.000080 0.900000 0.040227
3.406627 0.021951 0.048262 0.000992 0.900000 0.048272
3.511446 0.021951 0.053081 0.001161 0.900000 0.053094
3.616265 0.021951 0.048294 0.001598 0.900000 0.048320
3.721084 0.021951 0.042989 0.000478 0.900000 0.042992
3.825904 0.021951 0.039036 0.000300 0.900000 0.039037
3.930723 0.021951 0.034883 0.000231 0.900000 0.034884
4.035542 0.021951 0.029376 0.001337 0.900000 0.029407
4.140361 0.021951 0.026595 0.000731 0.900000 0.026605
4.245181 0.021951 0.027816 0.000784 0.900000 0.027827
4.350000 0.021951 0.026668 0.000422 0.900000 0.026672
4.454819 0.021951 0.027420 0.000450 0.900000 0.027423
4.559639 0.021951 0.029100 0.000141 0.900000 0.029100
4.664458 0.021951 0.029456 0.000245 0.900000 0.029457
4.769277 0.021951 0.016316 0.001563 0.900000 0.016391
4.874096 0.021951 0.003740 0.000137 0.900000 0.003742
4.978916 0.021951 0.004101 0.000460 0.900000 0.004127
5.083735 0.021951 0.006244 0.000227 0.900000 0.006248
5.188554 0.021951 0.000319 0.001471 0.900000 0.001505
5.293373 0.021951 -0.006404 0.000166 0.900000 0.006406
5.398193 0.021951 -0.001729 0.000126 0.900000 0.001733
5.503012 0.021951 0.002193 0.000352 0.900000 0.002221
5.607831 0.021951 0.001700 0.000385 0.900000 0.001743
5.712651 0.021951 -0.001623 0.000221 0.900000 0.001638
5.817470 0.021951 -0.002746 0.000135 0.900000 0.002750
5.922289 0.021951 -0.001685 0.000367 0.900000 0.001725
6.027108 0.021951 -0.003010 0.000530 0.900000 0.003057
6.131928 0.021951 -0.006268 0.000815 0.900000 0.006321
6.236747 0.021951 -0.006973 -0.000215 0.900000 0.006976
6.341566 0.021951 -0.003612 -0.000213 0.900000 0.003618
6.446386 0.021951 -0.002307 0.000176 0.900000 0.002314
6.551205 0.021951 -0.004018 0.000432 0.900000 0.004041
6.656024 0.021951 -0.009225 0.000854 0.900000 0.009264
6.760843 0.021951 -0.010665 0.000002 0.900000 0.010665
6.865663 0.021951 -0.007221 -0.000075 0.900000 0.007222
6.970482 0.021951 -0.006402 -0.000073 0.900000 0.006402
7.075301 0.021951 -0.007165 0.000240 0.900000 0.007169
7.180120 0.021951 -0.011424 0.000809 0.900000 0.011452
7.284940 0.021951 -0.011944 -0.000330 0.900000 0.011948
7.389759 0.021951 -0.010264 -0.000079 0.900000 0.010264
7.494578 0.021951 -0.011778 0.000019 0.900000 0.011778
7.599398 0.021951 -0.011178 0.000098 0.900000 0.011178
7.704217 0.021951 -0.009824 0.000289 0.900000 0.009829
7.809036 0.021951 -0.007343 -0.000144 0.900000 0.007344
7.913855 0.021951 -0.004668 0.000038 0.900000 0.004668
8.018675 0.021951 -0.010352 0.001313 0.900000 0.010434
8.123494 0.021951 -0.019777 0.001233 0.900000 0.019816
8.228313 0.021951 -0.019269 0.000107 0.900000 0.019270
8.333133 0.021951 -0.012832 0.000096 0.900000 0.012833
8.437952 0.021951 -0.007165 0.000083 0.900000 0.007165
8.542771 0.021951 -0.002211 0.000147 0.900000 0.002215
8.647590 0.021951 0.000000 0.000000 0.000000 0.000000
0.052410 0.036585 0.000000 0.000000 0.000000 0.000000
0.157229 0.036585 -0.000128 0.000820 0.900000 0.000830
0.262048 0.036585 0.000393 0.000518 0.900000 0.000650
0.366867 0.036585 0.001889 0.000477 0.900000 0.001949
0.471687 0.036585 0.002747 0.001210 0.900000 0.003002
0.576506 0.036585 0.002208 -0.000254 0.900000 0.002222
0.681325 0.036585 -0.002665 0.000008 0.900000 0.002665
0.786145 0.036585 -0.007789 0.001251 0.900000 0.007889
0.890964 0.036585 -0.004177 0.000009 0.900000 0.004177
0.995783 0.036585 0.001180 -0.000383 0.900000 0.001241
1.100602 0.036585 0.002432 0.000018 0.900000 0.002432
1.205422 0.036585 0.002488 0.000112 0.900000 0.002491
1.310241 0.036585 0.000438 0.000453 0.900000 0.000630
1.415060 0.036585 0.001931 0.000369 0.900000 0.001966
1.519880 0.036585 0.005497 0.000327 0.900000 0.005506
1.624699 0.036585 0.005293 0.000184 0.900000 0.005296
1.729518 0.036585 0.004238 0.000480 0.900000 0.004265
1.834337 0.036585 0.001956 0.000239 0.900000 0.001970
1.939157 0.036585 0.000759 0.001680 0.900000 0.001843
2.043976 0.036585 0.007289 0.001711 0.900000 0.007487
2.148795 0.036585 0.014301 0.000694 0.900000 0.014318
2.253614 0.036585 0.010790 0.001763 0.900000 0.010933
2.358434 0.036585 0.008680 0.000172 0.900000 0.008682
2.463253 0.036585 0.017114 0.000365 0.900000 0.017117
2.568072 0.036585 0.026114 0.001856 0.900000 0.026180
2.672892 0.036585 0.028197 0.000553 0.900000 0.028203
2.777711 0.036585 0.023006 0.001088 0.900000 0.023032
2.882530 0.036585 0.015231 0.002527 0.900000 0.015439
2.987349 0.036585 0.012454 0.002830 0.900000 0.012771
3.092169 0.036585 0.018199 0.002058 0.900000 0.018315
3.196988 0.036585 0.023667 0.000576 0.900000 0.023674
3.301807 0.036585 0.021890 0.000047 0.900000 0.021890
3.406627 0.036585 0.026740 0.001951 0.900000 0.026811
3.511446 0.036585 0.037308 0.001906 0.900000 0.037357
3.616265 0.036585 0.040499 0.003008 0.900000 0.040610
3.721084 0.036585 0.034640 0.001079 0.900000 0.034657
3.825904 0.036585 0.017773 0.000926 0.900000 0.017797
3.930723 0.036585 0.000545 0.000467 0.900000 0.000718
4.035542 0.036585 -0.003488 0.002146 0.900000 0.004095
4.140361 0.036585 -0.001179 0.001550 0.900000 0.001947
4.245181 0.036585 -0.003832 0.001541 0.900000 0.004130
4.350000 0.036585 -0.012157 0.001018 0.900000 0.012200
4.454819 0.036585 -0.017022 0.000950 0.900000 0.017048
4.559639 0.036585 -0.017995 -0.000090 0.900000 0.017995
4.664458 0.036585 -0.025025 0.000598 0.900000 0.025032
4.769277 0.036585 -0.036630 0.003113 0.900000 0.036763
4.874096 0.036585 -0.044919 0.000226 0.900000 0.044919
4.978916 0.036585 -0.047642 0.001069 0.900000 0.047654
5.083735 0.036585 -0.046735 0.000190 0.900000 0.046736
5.188554 0.036585 -0.046020 0.002934 0.900000 0.046113
5.293373 0.036585 -0.046723 0.000213 0.900000 0.046723
5.398193 0.036585 -0.043179 0.000259 0.900000 0.043180
5.503012 0.036585 -0.039309 0.000631 0.900000 0.039314
5.607831 0.036585 -0.038507 0.000657 0.900000 0.038513
5.712651 0.036585 -0.041203 0.000453 0.900000 0.041206
5.817470 0.036585 -0.043136 0.000317 0.900000 0.043137
5.922289 0.036585 -0.041179 0.000763 0.900000 0.041186
6.027108 0.036585 -0.037194 0.000843 0.900000 0.037204
6.131928 0.036585 -0.029948 0.001357 0.900000 0.029979
6.236747 0.036585 -0.027831 -0.000340 0.900000 0.027833
6.341566 0.036585 -0.030095 -0.000247 0.900000 0.030096
6.446386 0.036585 -0.030422 0.000290 0.900000 0.030424
6.551205 0.036585 -0.031384 0.001148 0.900000 0.031405
6.656024 0.036585 -0.036438 0.002289 0.900000 0.036510
6.760843 0.036585 -0.032894 -0.000695 0.900000 0.032901
6.865663 0.036585 -0.024572 -0.000293 0.900000 0.024574
6.970482 0.036585 -0.025118 -0.000107 0.900000 0.025118
7.075301 0.036585 -0.026368 0.000494 0.900000 0.026373
7.180120 0.036585 -0.023467 0.001554 0.900000 0.023518
7.284940 0.036585 -0.020367 -0.000560 0.900000 0.020374
7.389759 0.036585 -0.022725 -0.000092 0.900000 0.022725
7.494578 0.036585 -0.026217 0.000094 0.900000 0.026217
7.599398 0.036585 -0.025672 0.000268 0.900000 0.025673
7.704217 0.036585 -0.020957 0.000493 0.900000 0.020963
7.809036 0.036585 -0.016961 -0.000241 0.900000 0.016963
7.913855 0.036585 -0.019100 0.000060 0.900000 0.019100
8.018675 0.036585 -0.023830 0.002746 0.900000 0.023988
8.123494 0.036585 -0.023674 0.002849 0.900000 0.023845
8.228313 0.036585 -0.018412 0.000325 0.900000 0.018415
8.333133 0.036585 -0.012566 0.000265 0.900000 0.012569
8.437952 0.036585 -0.007033 0.000240 0.900000 0.007038
8.542771 0.036585 -0.002161 0.000439 0.900000 0.002205
8.647590 0.036585 0.000000 0.000000 0.000000 0.000000
0.052410 0.051220 0.000000 0.000000 0.000000 0.000000
0.157229 0.051220 -0.000176 0.001375 0.900000 0.001386
0.262048 0.051220 0.000333 0.000835 0.900000 0.000899
0.366867 0.051220 0.001850 0.000759 0.900000 0.001999
0.471687 0.051220 0.002984 0.001782 0.900000 0.003476
0.576506 0.051220 0.002768 0.000307 0.900000 0.002785
0.681325 0.051220 -0.001640 0.000281 0.900000 0.001664
0.786145 0.051220 -0.007069 0.001435 0.900000 0.007213
0.890964 0.051220 -0.004188 -0.001102 0.900000 0.004330
0.995783 0.051220 0.001162 -0.000921 0.900000 0.001483
1.100602 0.051220 0.002366 0.000046 0.900000 0.002366
1.205422 0.051220 0.002317 0.000124 0.900000 0.002320
1.310241 0.051220 0.000176 0.000765 0.900000 0.000785
1.415060 0.051220 0.001764 -0.000307 0.900000 0.001791
1.519880 0.051220 0.005301 0.000374 0.900000 0.005314
1.624699 0.051220 0.005068 -0.000033 0.900000 0.005068
1.729518 0.051220 0.004031 0.000445 0.900000 0.004055
1.834337 0.051220 0.001742 -0.000067 0.900000 0.001743
1.939157 0.051220 0.000359 0.001186 0.900000 0.001240
2.043976 0.051220 0.006926 0.000930 0.900000 0.006988
2.148795 0.051220 0.014332 0.000863 0.900000 0.014357
2.253614 0.051220 0.010611 0.002766 0.900000 0.010966
2.358434 0.051220 0.008437 -0.001057 0.900000 0.008503
2.463253 0.051220 0.017180 -0.000285 0.900000 0.017182
2.568072 0.051220 0.026093 0.001622 0.900000 0.026143
2.672892 0.051220 0.028151 0.000378 0.900000 0.028154
2.777711 0.051220 0.022901 0.001359 0.900000 0.022941
2.882530 0.051220 0.014968 0.001846 0.900000 0.015082
2.987349 0.051220 0.012090 0.002518 0.900000 0.012349
3.092169 0.051220 0.017883 0.001460 0.900000 0.017942
3.196988 0.051220 0.023589 0.000897 0.900000 0.023606
3.301807 0.051220 0.021863 -0.000181 0.900000 0.021864
3.406627 0.051220 0.026695 0.001880 0.900000 0.026761
3.511446 0.051220 0.037075 0.001169 0.900000 0.037093
3.616265 0.051220 0.040256 0.002869 0.900000 0.040359
3.721084 0.051220 0.034704 0.001259 0.900000 0.034727
3.825904 0.051220 0.017701 0.001571 0.900000 0.017771
3.930723 0.051220 0.000776 0.000395 0.900000 0.000871
4.035542 0.051220 -0.003003 0.001158 0.900000 0.003218
4.140361 0.051220 -0.000788 0.001772 0.900000 0.001939
4.245181 0.051220 -0.003481 0.001528 0.900000 0.003802
4.350000 0.051220 -0.012123 0.001428 0.900000 0.012207
4.454819 0.051220 -0.017224 0.001073 0.900000 0.017258
4.559639 0.051220 -0.018172 -0.000839 0.900000 0.018191
4.664458 0.051220 -0.025549 0.000906 0.900000 0.025565
4.769277 0.051220 -0.037803 0.003057 0.900000 0.037926
4.874096 0.051220 -0.045726 0.000023 0.900000 0.045726
4.978916 0.051220 -0.048378 0.001428 0.900000 0.048399
5.083735 0.051220 -0.047674 -0.000319 0.900000 0.047675
5.188554 0.051220 -0.046952 0.002946 0.900000 0.047044
5.293373 0.051220 -0.047389 -0.000079 0.900000 0.047389
5.398193 0.051220 -0.043593 0.000295 0.900000 0.043594
5.503012 0.051220 -0.039844 0.000491 0.900000 0.039847
5.607831 0.051220 -0.038906 0.000441 0.900000 0.038909
5.712651 0.051220 -0.041518 0.000448 0.900000 0.041520
5.817470 0.051220 -0.043557 0.000429 0.900000 0.043559
5.922289 0.051220 -0.041714 0.000834 0.900000 0.041722
6.027108 0.051220 -0.037642 0.000419 0.900000 0.037644
6.131928 0.051220 -0.030341 0.000827 0.900000 0.030352
6.236747 0.051220 -0.028117 -0.000194 0.900000 0.028117
6.341566 0.051220 -0.030154 0.000076 0.900000 0.030154
6.446386 0.051220 -0.030476 0.000193 0.900000 0.030476
6.551205 0.051220 -0.031652 0.001744 0.900000 0.031700
6.656024 0.051220 -0.037159 0.003486 0.900000 0.037322
6.760843 0.051220 -0.033384 -0.002182 0.900000 0.033456
6.865663 0.051220 -0.024747 -0.000559 0.900000 0.024754
6.970482 0.051220 -0.025458 -0.000040 0.900000 0.025458
7.075301 0.051220 -0.026557 0.000512 0.900000 0.026562
7.180120 0.051220 -0.023754 0.001455 0.900000 0.023798
7.284940 0.051220 -0.020524 -0.000409 0.900000 0.020528
7.389759 0.051220 -0.022592 0.000035 0.900000 0.022592
7.494578 0.051220 -0.026001 0.000192 0.900000 0.026002
7.599398 0.051220 -0.025320 0.000409 0.900000 0.025323
7.704217 0.051220 -0.020859 0.000363 0.900000 0.020862
7.809036 0.051220 -0.017155 -0.000160 0.900000 0.017156
7.913855 0.051220 -0.019527 0.000101 0.900000 0.019527
8.018675 0.051220 -0.023890 0.002968 0.900000 0.024073
8.123494 0.051220 -0.022956 0.003458 0.900000 0.023215
8.228313 0.051220 -0.017775 0.000528 0.900000 0.017783
8.333133 0.051220 -0.012290 0.000390 0.900000 0.012296
8.437952 0.051220 -0.006882 0.000379 0.900000 0.006893
8.542771 0.051220 -0.002100 0.000734 0.900000 0.002225
8.647590 0.051220 0.000000 0.000000 0.000000 0.000000
0.052410 0.065854 0.000000 0.000000 0.000000 0.000000
0.157229 0.065854 -0.000242 0.001940 0.900000 0.001955
0.262048 0.065854 0.000260 0.001122 0.900000 0.001151
0.366867 0.065854 0.001846 0.001003 0.900000 0.002101
0.471687 0.065854 0.003212 0.002189 0.900000 0.003887
0.576506 0.065854 0.003248 0.000708 0.900000 0.003324
0.681325 0.065854 -0.000637 0.000599 0.900000 0.000874
0.786145 0.065854 -0.006355 0.001897 0.900000 0.006632
0.890964 0.065854 -0.004153 -0.002213 0.900000 0.004706
0.995783 0.065854 0.001281 -0.001211 0.900000 0.001763
1.100602 0.065854 0.002404 0.000059 0.900000 0.002405
1.205422 0.065854 0.002287 0.000175 0.900000 0.002294
1.310241 0.065854 0.000001 0.001187 0.900000 0.001187
1.415060 0.065854 0.001681 -0.000978 0.900000 0.001944
1.519880 0.065854 0.005287 0.000467 0.900000 0.005308
1.624699 0.065854 0.005020 -0.000255 0.900000 0.005027
1.729518 0.065854 0.004006 0.000458 0.900000 0.004032
1.834337 0.065854 0.001799 -0.000306 0.900000 0.001825
1.939157 0.065854 0.000422 0.000806 0.900000 0.000910
2.043976 0.065854 0.006892 0.000178 0.900000 0.006894
2.148795 0.065854 0.014588 0.000724 0.900000 0.014606
2.253614 0.065854 0.010575 0.003977 0.900000 0.011298
2.358434 0.065854 0.008230 -0.002458 0.900000 0.008590
2.463253 0.065854 0.017400 -0.000824 0.900000 0.017420
2.568072 0.065854 0.026153 0.001552 0.900000 0.026199
2.672892 0.065854 0.028189 0.000281 0.900000 0.028190
2.777711 0.065854 0.023093 0.001682 0.900000 0.023154
2.882530 0.065854 0.015123 0.001046 0.900000 0.015159
2.987349 0.065854 0.012172 0.002366 0.900000 0.012400
3.092169 0.065854 0.017871 0.000957 0.900000 0.017896
3.196988 0.065854 0.023560 0.001378 0.900000 0.023600
3.301807 0.065854 0.022039 -0.000428 0.900000 0.022043
3.406627 0.065854 0.026876 0.001839 0.900000 0.026939
3.511446 0.065854 0.037232 0.000559 0.900000 0.037236
3.616265 0.065854 0.040363 0.003286 0.900000 0.040497
3.721084 0.065854 0.034872 0.001293 0.900000 0.034896
3.825904 0.065854 0.017971 0.002230 0.900000 0.018109
3.930723 0.065854 0.001175 0.000178 0.900000 0.001188
4.035542 0.065854 -0.002612 0.000777 0.900000 0.002725
4.140361 0.065854 -0.000601 0.001971 0.900000 0.002061
4.245181 0.065854 -0.003192 0.001540 0.900000 0.003544
4.350000 0.065854 -0.011980 0.001893 0.900000 0.012128
4.454819 0.065854 -0.017329 0.001203 0.900000 0.017371
4.559639 0.065854 -0.018000 -0.001649 0.900000 0.018076
4.664458 0.065854 -0.025157 0.001322 0.900000 0.025192
4.769277 0.065854 -0.038085 0.003028 0.900000 0.038206
4.874096 0.065854 -0.046082 -0.000413 0.900000 0.046084
4.978916 0.065854 -0.048704 0.001913 0.900000 0.048741
5.083735 0.065854 -0.047893 -0.000840 0.900000 0.047900
5.188554 0.065854 -0.047173 0.003071 0.900000 0.047273
5.293373 0.065854 -0.047782 -0.000457 0.900000 0.047784
5.398193 0.065854 -0.043831 0.000368 0.900000 0.043833
5.503012 0.065854 -0.040166 0.000374 0.900000 0.040168
5.607831 0.065854 -0.039151 0.000243 0.900000 0.039152
5.712651 0.065854 -0.041747 0.000410 0.900000 0.041749
5.817470 0.065854 -0.043791 0.000555 0.900000 0.043794
5.922289 0.065854 -0.041975 0.000941 0.900000 0.041985
6.027108 0.065854 -0.037855 0.000024 0.900000 0.037855
6.131928 0.065854 -0.030431 0.000349 0.900000 0.030433
6.236747 0.065854 -0.028058 -0.000084 0.900000 0.028058
6.341566 0.065854 -0.029993 0.000346 0.900000 0.029995
6.446386 0.065854 -0.030313 0.000157 0.900000 0.030314
6.551205 0.065854 -0.031526 0.002408 0.900000 0.031618
6.656024 0.065854 -0.037629 0.004815 0.900000 0.037936
6.760843 0.065854 -0.033688 -0.003880 0.900000 0.033910
6.865663 0.065854 -0.024720 -0.000757 0.900000 0.024731
6.970482 0.065854 -0.025745 0.000001 0.900000 0.025745
7.075301 0.065854 -0.026637 0.000502 0.900000 0.026641
7.180120 0.065854 -0.023789 0.001396 0.900000 0.023830
7.284940 0.065854 -0.020455 -0.000341 0.900000 0.020458
7.389759 0.065854 -0.022536 0.000176 0.900000 0.022537
7.494578 0.065854 -0.026089 0.000269 0.900000 0.026090
7.599398 0.065854 -0.025009 0.000498 0.900000 0.025014
7.704217 0.065854 -0.020551 0.000325 0.900000 0.020553
7.809036 0.065854 -0.017247 -0.000102 0.900000 0.017247
7.913855 0.065854 -0.019745 0.000264 0.900000 0.019747
8.018675 0.065854 -0.023629 0.003157 0.900000 0.023839
8.123494 0.065854 -0.022112 0.003796 0.900000 0.022436
8.228313 0.065854 -0.017156 0.000699 0.900000 0.017170
8.333133 0.065854 -0.012018 0.000475 0.900000 0.012028
8.437952 0.065854 -0.006706 0.000500 0.900000 0.006725
8.542771 0.065854 -0.002016 0.001044 0.900000 0.002271
8.647590 0.065854 0.000000 0.000000 0.000000 0.000000
0.052410 0.080488 0.000000 0.000000 0.000000 0.000000
0.157229 0.080488 -0.000201 0.002505 0.900000 0.002513
0.262048 0.080488 0.000293 0.001389 0.900000 0.001420
0.366867 0.080488 0.001835 0.001210 0.900000 0.002198
0.471687 0.080488 0.003400 0.002439 0.900000 0.004184
0.576506 0.080488 0.003436 0.001009 0.900000 0.003581
0.681325 0.080488 0.000016 0.000778 0.900000 0.000778
0.786145 0.080488 -0.001927 0.002103 0.900000 0.002852
0.890964 0.080488 -0.000127 -0.002964 0.900000 0.002966
0.995783 0.080488 0.001306 -0.001338 0.900000 0.001870
1.100602 0.080488 0.002133 -0.000029 0.900000 0.002134
1.205422 0.080488 0.002088 0.000252 0.900000 0.002103
1.310241 0.080488 -0.000456 0.001631 0.900000 0.001694
1.415060 0.080488 0.000788 -0.001618 0.900000 0.001800
1.519880 0.080488 0.004562 0.000412 0.900000 0.004581
1.624699 0.080488 0.004534 -0.000447 0.900000 0.004556
1.729518 0.080488 0.003555 0.000373 0.900000 0.003575
1.834337 0.080488 0.001933 -0.000538 0.900000 0.002006
1.939157 0.080488 0.000510 0.000392 0.900000 0.000643
2.043976 0.080488 0.006080 -0.000448 0.900000 0.006097
2.148795 0.080488 0.013684 0.000264 0.900000 0.013687
2.253614 0.080488 0.014741 0.004635 0.900000 0.015452
2.358434 0.080488 0.012486 -0.003446 0.900000 0.012952
2.463253 0.080488 0.016590 -0.001219 0.900000 0.016635
2.568072 0.080488 0.024977 0.001403 0.900000 0.025016
2.672892 0.080488 0.026798 0.000265 0.900000 0.026799
2.777711 0.080488 0.021564 0.002024 0.900000 0.021659
2.882530 0.080488 0.013487 0.000282 0.900000 0.013490
2.987349 0.080488 0.010421 0.002121 0.900000 0.010635
3.092169 0.080488 0.016134 0.000671 0.900000 0.016148
3.196988 0.080488 0.021799 0.001626 0.900000 0.021860
3.301807 0.080488 0.020309 -0.000651 0.900000 0.020320
3.406627 0.080488 0.025172 0.001548 0.900000 0.025220
3.511446 0.080488 0.035489 0.000064 0.900000 0.035489
3.616265 0.080488 0.038751 0.003697 0.900000 0.038927
3.721084 0.080488 0.032951 0.001319 0.900000 0.032978
3.825904 0.080488 0.015844 0.002557 0.900000 0.016049
3.930723 0.080488 -0.001209 -0.000029 0.900000 0.001209
4.035542 0.080488 -0.005098 0.001022 0.900000 0.005199
4.140361 0.080488 -0.002855 0.002135 0.900000 0.003565
4.245181 0.080488 -0.005196 0.001506 0.900000 0.005410
4.350000 0.080488 -0.013570 0.002315 0.900000 0.013766
4.454819 0.080488 -0.018815 0.000963 0.900000 0.018840
4.559639 0.080488 -0.021369 -0.002200 0.900000 0.021482
4.664458 0.080488 -0.027947 0.001528 0.900000 0.027989
4.769277 0.080488 -0.036962 0.002883 0.900000 0.037074
4.874096 0.080488 -0.045104 -0.000838 0.900000 0.045112
4.978916 0.080488 -0.047723 0.002280 0.900000 0.047778
5.083735 0.080488 -0.046800 -0.001198 0.900000 0.046815
5.188554 0.080488 -0.046199 0.003152 0.900000 0.046306
5.293373 0.080488 -0.046879 -0.000682 0.900000 0.046884
5.398193 0.080488 -0.044703 0.000548 0.900000 0.044707
5.503012 0.080488 -0.040656 0.000184 0.900000 0.040656
5.607831 0.080488 -0.039270 0.000135 0.900000 0.039271
5.712651 0.080488 -0.042017 0.000342 0.900000 0.042018
5.817470 0.080488 -0.043989 0.000737 0.900000 0.043995
5.922289 0.080488 -0.042375 0.001078 0.900000 0.042389
6.027108 0.080488 -0.038445 -0.000304 0.900000 0.038446
6.131928 0.080488 -0.031396 -0.000051 0.900000 0.031396
6.236747 0.080488 -0.029152 0.000032 0.900000 0.029152
6.341566 0.080488 -0.030951 0.000552 0.900000 0.030956
6.446386 0.080488 -0.030856 0.000136 0.900000 0.030856
6.551205 0.080488 -0.031027 0.002845 0.900000 0.031158
6.656024 0.080488 -0.031364 0.005615 0.900000 0.031862
6.760843 0.080488 -0.028380 -0.004859 0.900000 0.028793
6.865663 0.080488 -0.025103 -0.000921 0.900000 0.025120
6.970482 0.080488 -0.026002 0.000030 0.900000 0.026002
7.075301 0.080488 -0.026942 0.000486 0.900000 0.026946
7.180120 0.080488 -0.024028 0.001335 0.900000 0.024065
7.284940 0.080488 -0.020527 -0.000318 0.900000 0.020529
7.389759 0.080488 -0.022659 0.000345 0.900000 0.022662
7.494578 0.080488 -0.026331 0.000344 0.900000 0.026334
7.599398 0.080488 -0.025031 0.000496 0.900000 0.025036
7.704217 0.080488 -0.020452 0.000359 0.900000 0.020455
7.809036 0.080488 -0.017497 -0.000053 0.900000 0.017497
7.913855 0.080488 -0.020197 0.000486 0.900000 0.020203
8.018675 0.080488 -0.023492 0.003181 0.900000 0.023706
8.123494 0.080488 -0.021387 0.003938 0.900000 0.021747
8.228313 0.080488 -0.016621 0.000824 0.900000 0.016642
8.333133 0.080488 -0.011755 0.000527 0.900000 0.011767
8.437952 0.080488 -0.006527 0.000594 0.900000 0.006554
8.542771 0.080488 -0.001922 0.001373 0.900000 0.002362
8.647590 0.080488 0.000000 0.000000 0.000000 0.000000
0.052410 0.095122 0.000000 0.000000 0.000000 0.000000
0.157229 0.095122 -0.000131 0.003048 0.900000 0.003051
0.262048 0.095122 0.000339 0.001654 0.900000 0.001689
0.366867 0.095122 0.001808 0.001379 0.900000 0.002274
0.471687 0.095122 0.003452 0.002543 0.900000 0.004287
0.576506 0.095122 0.003519 0.001236 0.900000 0.003730
0.681325 0.095122 0.000605 0.000714 0.900000 0.000936
0.786145 0.095122 0.002226 0.001526 0.900000 0.002699
0.890964 0.095122 0.003746 -0.002965 0.900000 0.004778
0.995783 0.095122 0.001389 -0.001407 0.900000 0.001977
1.100602 0.095122 0.001908 -0.000302 0.900000 0.001932
1.205422 0.095122 0.001922 0.000385 0.900000 0.001961
1.310241 0.095122 -0.000984 0.002001 0.900000 0.002230
1.415060 0.095122 -0.000188 -0.002186 0.900000 0.002194
1.519880 0.095122 0.003870 0.000004 0.900000 0.003870
1.624699 0.095122 0.004063 -0.000549 0.900000 0.004100
1.729518 0.095122 0.003114 0.000049 0.900000 0.003114
1.834337 0.095122 0.002045 -0.000800 0.900000 0.002196
1.939157 0.095122 0.000577 -0.000204 0.900000 0.000612
2.043976 0.095122 0.005275 -0.000870 0.900000 0.005346
2.148795 0.095122 0.012760 -0.000579 0.900000 0.012774
2.253614 0.095122 0.018665 0.004022 0.900000 0.019093
2.358434 0.095122 0.016539 -0.003511 0.900000 0.016908
2.463253 0.095122 0.015790 -0.001316 0.900000 0.015845
2.568072 0.095122 0.023786 0.000868 0.900000 0.023802
2.672892 0.095122 0.025356 0.000432 0.900000 0.025360
2.777711 0.095122 0.019804 0.002401 0.900000 0.019949
2.882530 0.095122 0.011633 -0.000355 0.900000 0.011639
2.987349 0.095122 0.008560 0.001448 0.900000 0.008682
3.092169 0.095122 0.014312 0.000672 0.900000 0.014328
3.196988 0.095122 0.019953 0.001387 0.900000 0.020001
3.301807 0.095122 0.018443 -0.000787 0.900000 0.018460
3.406627 0.095122 0.023307 0.000671 0.900000 0.023317
3.511446 0.095122 0.033458 -0.000084 0.900000 0.033458
3.616265 0.095122 0.036825 0.003428 0.900000 0.036984
3.721084 0.095122 0.030741 0.001497 0.900000 0.030777
3.825904 0.095122 0.013451 0.002176 0.900000 0.013626
3.930723 0.095122 -0.003533 -0.000134 0.900000 0.003536
4.035542 0.095122 -0.007358 0.000985 0.900000 0.007424
4.140361 0.095122 -0.005087 0.002417 0.900000 0.005632
4.245181 0.095122 -0.007217 0.001384 0.900000 0.007348
4.350000 0.095122 -0.015207 0.002679 0.900000 0.015441
4.454819 0.095122 -0.020389 0.000091 0.900000 0.020389
4.559639 0.095122 -0.025063 -0.002095 0.900000 0.025150
4.664458 0.095122 -0.031044 0.001180 0.900000 0.031066
4.769277 0.095122 -0.035774 0.002378 0.900000 0.035853
4.874096 0.095122 -0.044091 -0.000968 0.900000 0.044101
4.978916 0.095122 -0.046761 0.002227 0.900000 0.046814
5.083735 0.095122 -0.045724 -0.001177 0.900000 0.045739