TITLE="(Vx,Vy)"
VARIABLES=X,Y,Vx,Vy,Vm,V
ZONE T="T-Dummy" I=83, J=41, F=POINT
0.052410 0.007317 0.000000 0.000000 0.000000 0.000000
0.157229 0.007317 0.000000 0.000000 0.000000 0.000000
0.262048 0.007317 0.000000 0.000000 0.000000 0.000000
0.366867 0.007317 0.000000 0.000000 0.000000 0.000000
0.471687 0.007317 0.000000 0.000000 0.000000 0.000000
0.576506 0.007317 0.000000 0.000000 0.000000 0.000000
0.681325 0.007317 0.000000 0.000000 0.000000 0.000000
0.786145 0.007317 0.000000 0.000000 0.000000 0.000000
0.890964 0.007317 0.000000 0.000000 0.000000 0.000000
0.995783 0.007317 0.000000 0.000000 0.000000 0.000000
1.100602 0.007317 0.000000 0.000000 0.000000 0.000000
1.205422 0.007317 0.000000 0.000000 0.000000 0.000000
1.310241 0.007317 0.000000 0.000000 0.000000 0.000000
1.415060 0.007317 0.000000 0.000000 0.000000 0.000000
1.519880 0.007317 0.000000 0.000000 0.000000 0.000000
1.624699 0.007317 0.000000 0.000000 0.000000 0.000000
1.729518 0.007317 0.000000 0.000000 0.000000 0.000000
1.834337 0.007317 0.000000 0.000000 0.000000 0.000000
1.939157 0.007317 0.000000 0.000000 0.000000 0.000000
2.043976 0.007317 0.000000 0.000000 0.000000 0.000000
2.148795 0.007317 0.000000 0.000000 0.000000 0.000000
2.253614 0.007317 0.000000 0.000000 0.000000 0.000000
2.358434 0.007317 0.000000 0.000000 0.000000 0.000000
2.463253 0.007317 0.000000 0.000000 0.000000 0.000000
2.568072 0.007317 0.000000 0.000000 0.000000 0.000000
2.672892 0.007317 0.000000 0.000000 0.000000 0.000000
2.777711 0.007317 0.000000 0.000000 0.000000 0.000000
2.882530 0.007317 0.000000 0.000000 0.000000 0.000000
2.987349 0.007317 0.000000 0.000000 0.000000 0.000000
3.092169 0.007317 0.000000 0.000000 0.000000 0.000000
3.196988 0.007317 0.000000 0.000000 0.000000 0.000000
3.301807 0.007317 0.000000 0.000000 0.000000 0.000000
3.406627 0.007317 0.000000 0.000000 0.000000 0.000000
3.511446 0.007317 0.000000 0.000000 0.000000 0.000000
3.616265 0.007317 0.000000 0.000000 0.000000 0.000000
3.721084 0.007317 0.000000 0.000000 0.000000 0.000000
3.825904 0.007317 0.000000 0.000000 0.000000 0.000000
3.930723 0.007317 0.000000 0.000000 0.000000 0.000000
4.035542 0.007317 0.000000 0.000000 0.000000 0.000000
4.140361 0.007317 0.000000 0.000000 0.000000 0.000000
4.245181 0.007317 0.000000 0.000000 0.000000 0.000000
4.350000 0.007317 0.000000 0.000000 0.000000 0.000000
4.454819 0.007317 0.000000 0.000000 0.000000 0.000000
4.559639 0.007317 0.000000 0.000000 0.000000 0.000000
4.664458 0.007317 0.000000 0.000000 0.000000 0.000000
4.769277 0.007317 0.000000 0.000000 0.000000 0.000000
4.874096 0.007317 0.000000 0.000000 0.000000 0.000000
4.978916 0.007317 0.000000 0.000000 0.000000 0.000000
5.083735 0.007317 0.000000 0.000000 0.000000 0.000000
5.188554 0.007317 0.000000 0.000000 0.000000 0.000000
5.293373 0.007317 0.000000 0.000000 0.000000 0.000000
5.398193 0.007317 0.000000 0.000000 0.000000 0.000000
5.503012 0.007317 0.000000 0.000000 0.000000 0.000000
5.607831 0.007317 0.000000 0.000000 0.000000 0.000000
5.712651 0.007317 0.000000 0.000000 0.000000 0.000000
5.817470 0.007317 0.000000 0.000000 0.000000 0.000000
5.922289 0.007317 0.000000 0.000000 0.000000 0.000000
6.027108 0.007317 0.000000 0.000000 0.000000 0.000000
6.131928 0.007317 0.000000 0.000000 0.000000 0.000000
6.236747 0.007317 0.000000 0.000000 0.000000 0.000000
6.341566 0.007317 0.000000 0.000000 0.000000 0.000000
6.446386 0.007317 0.000000 0.000000 0.000000 0.000000
6.551205 0.007317 0.000000 0.000000 0.000000 0.000000
6.656024 0.007317 0.000000 0.000000 0.000000 0.000000
6.760843 0.007317 0.000000 0.000000 0.000000 0.000000
6.865663 0.007317 0.000000 0.000000 0.000000 0.000000
6.970482 0.007317 0.000000 0.000000 0.000000 0.000000
7.075301 0.007317 0.000000 0.000000 0.000000 0.000000
7.180120 0.007317 0.000000 0.000000 0.000000 0.000000
7.284940 0.007317 0.000000 0.000000 0.000000 0.000000
7.389759 0.007317 0.000000 0.000000 0.000000 0.000000
7.494578 0.007317 0.000000 0.000000 0.000000 0.000000
7.599398 0.007317 0.000000 0.000000 0.000000 0.000000
7.704217 0.007317 0.000000 0.000000 0.000000 0.000000
7.809036 0.007317 0.000000 0.000000 0.000000 0.000000
7.913855 0.007317 0.000000 0.000000 0.000000 0.000000
8.018675 0.007317 0.000000 0.000000 0.000000 0.000000
8.123494 0.007317 0.000000 0.000000 0.000000 0.000000
8.228313 0.007317 0.000000 0.000000 0.000000 0.000000
8.333133 0.007317 0.000000 0.000000 0.000000 0.000000
8.437952 0.007317 0.000000 0.000000 0.000000 0.000000
8.542771 0.007317 0.000000 0.000000 0.000000 0.000000
8.647590 0.007317 0.000000 0.000000 0.000000 0.000000
0.052410 0.021951 0.000000 0.000000 0.000000 0.000000
0.157229 0.021951 0.002270 -0.000197 0.900000 0.002279
0.262048 0.021951 0.006229 -0.000240 0.900000 0.006233
0.366867 0.021951 0.009464 -0.000296 0.900000 0.009468
0.471687 0.021951 0.012813 -0.000360 0.900000 0.012818
0.576506 0.021951 0.009670 0.000614 0.900000 0.009689
0.681325 0.021951 0.004533 -0.000397 0.900000 0.004550
0.786145 0.021951 0.002895 -0.000071 0.900000 0.002896
0.890964 0.021951 0.004074 -0.000691 0.900000 0.004133
0.995783 0.021951 0.005711 -0.000209 0.900000 0.005715
1.100602 0.021951 0.003373 -0.000551 0.900000 0.003417
1.205422 0.021951 0.002371 -0.000612 0.900000 0.002449
1.310241 0.021951 0.005894 -0.000787 0.900000 0.005946
1.415060 0.021951 0.008989 -0.000269 0.900000 0.008993
1.519880 0.021951 0.011096 -0.000581 0.900000 0.011111
1.624699 0.021951 0.012466 -0.000055 0.900000 0.012466
1.729518 0.021951 0.011428 0.000198 0.900000 0.011430
1.834337 0.021951 0.013853 -0.000752 0.900000 0.013873
1.939157 0.021951 0.018493 -0.000468 0.900000 0.018499
2.043976 0.021951 0.011478 0.001276 0.900000 0.011548
2.148795 0.021951 0.001380 0.000033 0.900000 0.001380
2.253614 0.021951 0.009145 -0.001804 0.900000 0.009321
2.358434 0.021951 0.015167 0.000142 0.900000 0.015168
2.463253 0.021951 0.013143 -0.000251 0.900000 0.013146
2.568072 0.021951 0.014993 -0.000338 0.900000 0.014997
2.672892 0.021951 0.016001 -0.000393 0.900000 0.016006
2.777711 0.021951 0.017660 -0.001954 0.900000 0.017768
2.882530 0.021951 0.025128 -0.001345 0.900000 0.025164
2.987349 0.021951 0.025416 -0.000331 0.900000 0.025418
3.092169 0.021951 0.016447 0.000468 0.900000 0.016454
3.196988 0.021951 0.004767 0.001527 0.900000 0.005005
3.301807 0.021951 0.001894 -0.000432 0.900000 0.001943
3.406627 0.021951 0.012969 -0.000280 0.900000 0.012972
3.511446 0.021951 0.024247 -0.000499 0.900000 0.024252
3.616265 0.021951 0.033011 -0.000202 0.900000 0.033012
3.721084 0.021951 0.029424 0.001162 0.900000 0.029447
3.825904 0.021951 0.017396 0.000223 0.900000 0.017397
3.930723 0.021951 0.014036 -0.000880 0.900000 0.014064
4.035542 0.021951 0.018609 -0.000978 0.900000 0.018635
4.140361 0.021951 0.022292 -0.000161 0.900000 0.022292
4.245181 0.021951 0.024870 -0.000085 0.900000 0.024870
4.350000 0.021951 0.010092 0.002814 0.900000 0.010477
4.454819 0.021951 0.000397 -0.000104 0.900000 0.000411
4.559639 0.021951 -0.004559 0.001654 0.900000 0.004850
4.664458 0.021951 0.001584 -0.003748 0.900000 0.004069
4.769277 0.021951 0.009319 0.001472 0.900000 0.009435
4.874096 0.021951 0.008371 -0.002133 0.900000 0.008638
4.978916 0.021951 0.016555 -0.001274 0.900000 0.016604
5.083735 0.021951 0.015863 0.000066 0.900000 0.015863
5.188554 0.021951 0.009751 0.000571 0.900000 0.009767
5.293373 0.021951 0.006459 -0.000345 0.900000 0.006468
5.398193 0.021951 0.009509 -0.000091 0.900000 0.009510
5.503012 0.021951 0.012478 -0.000595 0.900000 0.012492
5.607831 0.021951 0.016597 -0.000553 0.900000 0.016606
5.712651 0.021951 0.021604 -0.000908 0.900000 0.021623
5.817470 0.021951 0.028116 -0.000823 0.900000 0.028128
5.922289 0.021951 0.030354 -0.000492 0.900000 0.030358
6.027108 0.021951 0.024237 0.000612 0.900000 0.024245
6.131928 0.021951 0.013542 0.000535 0.900000 0.013553
6.236747 0.021951 0.003862 0.001868 0.900000 0.004290
6.341566 0.021951 0.003888 -0.000988 0.900000 0.004011
6.446386 0.021951 0.005596 0.000336 0.900000 0.005606
6.551205 0.021951 0.012678 -0.000674 0.900000 0.012696
6.656024 0.021951 0.018652 0.000742 0.900000 0.018666
6.760843 0.021951 0.015766 -0.001110 0.900000 0.015805
6.865663 0.021951 0.018414 -0.000367 0.900000 0.018418
6.970482 0.021951 0.022593 -0.000473 0.900000 0.022597
7.075301 0.021951 0.023665 0.000547 0.900000 0.023671
7.180120 0.021951 0.017428 0.000942 0.900000 0.017454
7.284940 0.021951 0.015647 -0.000037 0.900000 0.015647
7.389759 0.021951 0.018383 0.000047 0.900000 0.018383
7.494578 0.021951 0.018628 0.000229 0.900000 0.018630
7.599398 0.021951 0.014951 0.000802 0.900000 0.014972
7.704217 0.021951 0.012379 0.000152 0.900000 0.012380
7.809036 0.021951 0.016065 -0.000138 0.900000 0.016066
7.913855 0.021951 0.016820 0.000186 0.900000 0.016821
8.018675 0.021951 0.018124 -0.000228 0.900000 0.018125
8.123494 0.021951 0.025230 -0.000406 0.900000 0.025234
8.228313 0.021951 0.028407 0.000192 0.900000 0.028408
8.333133 0.021951 0.024392 0.000332 0.900000 0.024394
8.437952 0.021951 0.017122 0.000409 0.900000 0.017126
8.542771 0.021951 0.006403 0.000573 0.900000 0.006429
8.647590 0.021951 0.000000 0.000000 0.000000 0.000000
0.052410 0.036585 0.000000 0.000000 0.000000 0.000000
0.157229 0.036585 0.002077 -0.000566 0.900000 0.002153
0.262048 0.036585 0.005642 -0.000697 0.900000 0.005684
0.366867 0.036585 0.008279 -0.000834 0.900000 0.008321
0.471687 0.036585 0.010187 -0.000948 0.900000 0.010231
0.576506 0.036585 0.000591 0.002555 0.900000 0.002622
0.681325 0.036585 -0.016779 -0.000317 0.900000 0.016782
0.786145 0.036585 -0.018154 -0.001342 0.900000 0.018203
0.890964 0.036585 -0.011162 -0.001910 0.900000 0.011324
0.995783 0.036585 -0.010727 -0.000726 0.900000 0.010751
1.100602 0.036585 -0.017900 -0.001283 0.900000 0.017946
1.205422 0.036585 -0.021532 -0.002579 0.900000 0.021686
1.310241 0.036585 -0.018909 -0.002297 0.900000 0.019048
1.415060 0.036585 -0.019592 -0.001237 0.900000 0.019631
1.519880 0.036585 -0.019435 -0.001940 0.900000 0.019532
1.624699 0.036585 -0.021068 -0.000408 0.900000 0.021072
1.729518 0.036585 -0.018052 -0.000607 0.900000 0.018062
1.834337 0.036585 -0.012410 -0.002512 0.900000 0.012662
1.939157 0.036585 -0.013100 -0.001474 0.900000 0.013183
2.043976 0.036585 -0.025204 0.002984 0.900000 0.025380
2.148795 0.036585 -0.029556 -0.002980 0.900000 0.029706
2.253614 0.036585 -0.018068 -0.006430 0.900000 0.019178
2.358434 0.036585 -0.013874 -0.001445 0.900000 0.013949
2.463253 0.036585 -0.015888 -0.001981 0.900000 0.016011
2.568072 0.036585 -0.017561 -0.002855 0.900000 0.017792
2.672892 0.036585 -0.015379 -0.003684 0.900000 0.015814
2.777711 0.036585 -0.013612 -0.007710 0.900000 0.015644
2.882530 0.036585 -0.015651 -0.003259 0.900000 0.015987
2.987349 0.036585 -0.026935 -0.001573 0.900000 0.026981
3.092169 0.036585 -0.043460 0.000567 0.900000 0.043464
3.196988 0.036585 -0.043103 0.000466 0.900000 0.043106
3.301807 0.036585 -0.037235 -0.002179 0.900000 0.037299
3.406627 0.036585 -0.028241 -0.002251 0.900000 0.028331
3.511446 0.036585 -0.015397 -0.002352 0.900000 0.015576
3.616265 0.036585 -0.010688 -0.002209 0.900000 0.010913
3.721084 0.036585 -0.011067 0.000660 0.900000 0.011086
3.825904 0.036585 -0.018104 -0.002188 0.900000 0.018236
3.930723 0.036585 -0.027234 -0.002932 0.900000 0.027391
4.035542 0.036585 -0.035451 -0.004020 0.900000 0.035678
4.140361 0.036585 -0.041791 -0.002274 0.900000 0.041853
4.245181 0.036585 -0.048633 -0.002182 0.900000 0.048682
4.350000 0.036585 -0.054788 0.003864 0.900000 0.054924
4.454819 0.036585 -0.046507 -0.002167 0.900000 0.046557
4.559639 0.036585 -0.026521 0.000026 0.900000 0.026521
4.664458 0.036585 -0.031625 -0.008259 0.900000 0.032685
4.769277 0.036585 -0.035144 0.000147 0.900000 0.035145
4.874096 0.036585 -0.021303 -0.006604 0.900000 0.022303
4.978916 0.036585 -0.030099 -0.003821 0.900000 0.030341
5.083735 0.036585 -0.045197 -0.001037 0.900000 0.045209
5.188554 0.036585 -0.053523 -0.000164 0.900000 0.053523
5.293373 0.036585 -0.042547 -0.000700 0.900000 0.042553
5.398193 0.036585 -0.026011 -0.000843 0.900000 0.026025
5.503012 0.036585 -0.022866 -0.001907 0.900000 0.022945
5.607831 0.036585 -0.015892 -0.002437 0.900000 0.016078
5.712651 0.036585 -0.006972 -0.003265 0.900000 0.007699
5.817470 0.036585 -0.003467 -0.002702 0.900000 0.004396
5.922289 0.036585 -0.007730 -0.002097 0.900000 0.008010
6.027108 0.036585 -0.017500 0.000438 0.900000 0.017505
6.131928 0.036585 -0.029879 -0.000116 0.900000 0.029879
6.236747 0.036585 -0.031699 0.002195 0.900000 0.031775
6.341566 0.036585 -0.023538 -0.002647 0.900000 0.023686
6.446386 0.036585 -0.023896 0.000040 0.900000 0.023896
6.551205 0.036585 -0.017736 -0.002317 0.900000 0.017887
6.656024 0.036585 -0.004693 0.000910 0.900000 0.004780
6.760843 0.036585 -0.002201 -0.003247 0.900000 0.003923
6.865663 0.036585 -0.003021 -0.001015 0.900000 0.003187
6.970482 0.036585 -0.002170 -0.001737 0.900000 0.002780
7.075301 0.036585 -0.002319 0.001142 0.900000 0.002585
7.180120 0.036585 -0.009136 0.002152 0.900000 0.009386
7.284940 0.036585 -0.007450 -0.001186 0.900000 0.007544
7.389759 0.036585 -0.001020 -0.000109 0.900000 0.001026
7.494578 0.036585 -0.001134 0.000334 0.900000 0.001182
7.599398 0.036585 -0.004295 0.001982 0.900000 0.004730
7.704217 0.036585 -0.001365 -0.000701 0.900000 0.001535
7.809036 0.036585 0.005451 -0.000157 0.900000 0.005453
7.913855 0.036585 0.004790 0.000299 0.900000 0.004800
8.018675 0.036585 0.008602 -0.001063 0.900000 0.008667
8.123494 0.036585 0.019703 -0.001582 0.900000 0.019767
8.228313 0.036585 0.025857 0.000423 0.900000 0.025861
8.333133 0.036585 0.023129 0.000928 0.900000 0.023148
8.437952 0.036585 0.016436 0.001197 0.900000 0.016480
8.542771 0.036585 0.006166 0.001684 0.900000 0.006391
8.647590 0.036585 0.000000 0.000000 0.000000 0.000000
0.052410 0.051220 0.000000 0.000000 0.000000 0.000000
0.157229 0.051220 0.001874 -0.000884 0.900000 0.002072
0.262048 0.051220 0.005025 -0.001106 0.900000 0.005145
0.366867 0.051220 0.007075 -0.001268 0.900000 0.007188
0.471687 0.051220 0.007880 -0.001313 0.900000 0.007989
0.576506 0.051220 -0.000453 0.004881 0.900000 0.004902
0.681325 0.051220 -0.013782 0.000499 0.900000 0.013791
0.786145 0.051220 -0.015386 -0.003244 0.900000 0.015724
0.890964 0.051220 -0.010829 -0.002794 0.900000 0.011183
0.995783 0.051220 -0.010736 -0.001486 0.900000 0.010838
1.100602 0.051220 -0.015028 -0.001888 0.900000 0.015147
1.205422 0.051220 -0.018366 -0.004801 0.900000 0.018983
1.310241 0.051220 -0.018561 -0.003546 0.900000 0.018897
1.415060 0.051220 -0.019301 -0.002509 0.900000 0.019464
1.519880 0.051220 -0.020665 -0.003075 0.900000 0.020892
1.624699 0.051220 -0.022371 -0.001032 0.900000 0.022395
1.729518 0.051220 -0.018517 -0.002292 0.900000 0.018659
1.834337 0.051220 -0.015008 -0.004179 0.900000 0.015579
1.939157 0.051220 -0.015623 -0.002498 0.900000 0.015821
2.043976 0.051220 -0.015925 0.002614 0.900000 0.016138
2.148795 0.051220 -0.013806 -0.007676 0.900000 0.015796
2.253614 0.051220 -0.012436 -0.010488 0.900000 0.016268
2.358434 0.051220 -0.014753 -0.004196 0.900000 0.015338
2.463253 0.051220 -0.016463 -0.004453 0.900000 0.017055
2.568072 0.051220 -0.017274 -0.006294 0.900000 0.018385
2.672892 0.051220 -0.015864 -0.008250 0.900000 0.017881
2.777711 0.051220 -0.013435 -0.013378 0.900000 0.018960
2.882530 0.051220 -0.014583 -0.004363 0.900000 0.015222
2.987349 0.051220 -0.027361 -0.002982 0.900000 0.027523
3.092169 0.051220 -0.044093 -0.000012 0.900000 0.044093
3.196988 0.051220 -0.044031 -0.003988 0.900000 0.044211
3.301807 0.051220 -0.037366 -0.004748 0.900000 0.037666
3.406627 0.051220 -0.027441 -0.005033 0.900000 0.027899
3.511446 0.051220 -0.013885 -0.004995 0.900000 0.014757
3.616265 0.051220 -0.009945 -0.005013 0.900000 0.011137
3.721084 0.051220 -0.012110 -0.002559 0.900000 0.012378
3.825904 0.051220 -0.019880 -0.006888 0.900000 0.021040
3.930723 0.051220 -0.028490 -0.005300 0.900000 0.028979
4.035542 0.051220 -0.035927 -0.007432 0.900000 0.036688
4.140361 0.051220 -0.041836 -0.005967 0.900000 0.042260
4.245181 0.051220 -0.049768 -0.005081 0.900000 0.050027
4.350000 0.051220 -0.056932 0.000272 0.900000 0.056932
4.454819 0.051220 -0.047378 -0.005631 0.900000 0.047711
4.559639 0.051220 -0.029635 -0.005869 0.900000 0.030211
4.664458 0.051220 -0.033605 -0.009459 0.900000 0.034911
4.769277 0.051220 -0.035201 -0.004943 0.900000 0.035547
4.874096 0.051220 -0.023889 -0.010538 0.900000 0.026110
4.978916 0.051220 -0.030706 -0.006382 0.900000 0.031363
5.083735 0.051220 -0.042735 -0.002827 0.900000 0.042828
5.188554 0.051220 -0.051633 -0.002048 0.900000 0.051673
5.293373 0.051220 -0.042199 -0.000593 0.900000 0.042203
5.398193 0.051220 -0.026074 -0.001981 0.900000 0.026149
5.503012 0.051220 -0.022231 -0.003259 0.900000 0.022469
5.607831 0.051220 -0.014772 -0.004776 0.900000 0.015525
5.712651 0.051220 -0.006719 -0.005670 0.900000 0.008792
5.817470 0.051220 -0.003587 -0.004752 0.900000 0.005954
5.922289 0.051220 -0.008048 -0.003868 0.900000 0.008929
6.027108 0.051220 -0.016115 -0.001344 0.900000 0.016171
6.131928 0.051220 -0.027220 -0.002002 0.900000 0.027294
6.236747 0.051220 -0.030906 -0.000756 0.900000 0.030915
6.341566 0.051220 -0.023331 -0.003750 0.900000 0.023630
6.446386 0.051220 -0.024106 -0.001175 0.900000 0.024135
6.551205 0.051220 -0.021541 -0.003678 0.900000 0.021853
6.656024 0.051220 -0.008356 -0.000453 0.900000 0.008369
6.760843 0.051220 -0.003199 -0.004328 0.900000 0.005382
6.865663 0.051220 -0.003427 -0.001555 0.900000 0.003764
6.970482 0.051220 -0.004543 -0.002730 0.900000 0.005300
7.075301 0.051220 -0.004988 0.000951 0.900000 0.005078
7.180120 0.051220 -0.004020 0.002343 0.900000 0.004653
7.284940 0.051220 -0.002274 -0.002677 0.900000 0.003513
7.389759 0.051220 -0.001173 -0.000372 0.900000 0.001231
7.494578 0.051220 -0.001526 0.000251 0.900000 0.001546
7.599398 0.051220 -0.000451 0.002246 0.900000 0.002291
7.704217 0.051220 0.003003 -0.002152 0.900000 0.003695
7.809036 0.051220 0.006394 0.000124 0.900000 0.006395
7.913855 0.051220 0.006826 0.000143 0.900000 0.006827
8.018675 0.051220 0.011330 -0.002236 0.900000 0.011548
8.123494 0.051220 0.019714 -0.002824 0.900000 0.019915
8.228313 0.051220 0.024015 0.000416 0.900000 0.024019
8.333133 0.051220 0.021975 0.001421 0.900000 0.022021
8.437952 0.051220 0.015770 0.001922 0.900000 0.015886
8.542771 0.051220 0.005950 0.002726 0.900000 0.006545
8.647590 0.051220 0.000000 0.000000 0.000000 0.000000
0.052410 0.065854 0.000000 0.000000 0.000000 0.000000
0.157229 0.065854 0.001672 -0.001153 0.900000 0.002031
0.262048 0.065854 0.004386 -0.001462 0.900000 0.004623
0.366867 0.065854 0.005939 -0.001614 0.900000 0.006155
0.471687 0.065854 0.005746 -0.001493 0.900000 0.005937
0.576506 0.065854 -0.001192 0.006522 0.900000 0.006630
0.681325 0.065854 -0.011323 0.001150 0.900000 0.011381
0.786145 0.065854 -0.013299 -0.004311 0.900000 0.013981
0.890964 0.065854 -0.010361 -0.003358 0.900000 0.010891
0.995783 0.065854 -0.010692 -0.002538 0.900000 0.010989
1.100602 0.065854 -0.012615 -0.002949 0.900000 0.012955
1.205422 0.065854 -0.015877 -0.006109 0.900000 0.017012
1.310241 0.065854 -0.018507 -0.004456 0.900000 0.019036
1.415060 0.065854 -0.019230 -0.003556 0.900000 0.019556
1.519880 0.065854 -0.021798 -0.003478 0.900000 0.022073
1.624699 0.065854 -0.023311 -0.001787 0.900000 0.023379
1.729518 0.065854 -0.018675 -0.003381 0.900000 0.018978
1.834337 0.065854 -0.016985 -0.005201 0.900000 0.017764
1.939157 0.065854 -0.017105 -0.003464 0.900000 0.017452
2.043976 0.065854 -0.007706 0.000125 0.900000 0.007707
2.148795 0.065854 -0.000862 -0.009935 0.900000 0.009972
2.253614 0.065854 -0.008295 -0.011514 0.900000 0.014191
2.358434 0.065854 -0.016040 -0.005633 0.900000 0.017000
2.463253 0.065854 -0.017264 -0.005978 0.900000 0.018270
2.568072 0.065854 -0.017654 -0.007987 0.900000 0.019377
2.672892 0.065854 -0.015499 -0.010911 0.900000 0.018955
2.777711 0.065854 -0.012752 -0.015303 0.900000 0.019920
2.882530 0.065854 -0.015027 -0.005457 0.900000 0.015987
2.987349 0.065854 -0.029920 -0.003530 0.900000 0.030127
3.092169 0.065854 -0.045130 -0.000692 0.900000 0.045135
3.196988 0.065854 -0.043207 -0.007059 0.900000 0.043780
3.301807 0.065854 -0.037046 -0.007247 0.900000 0.037748
3.406627 0.065854 -0.027655 -0.006747 0.900000 0.028466
3.511446 0.065854 -0.015086 -0.007440 0.900000 0.016821
3.616265 0.065854 -0.011253 -0.006523 0.900000 0.013007
3.721084 0.065854 -0.013192 -0.005629 0.900000 0.014343
3.825904 0.065854 -0.021323 -0.010525 0.900000 0.023779
3.930723 0.065854 -0.029844 -0.007614 0.900000 0.030800
4.035542 0.065854 -0.036958 -0.009578 0.900000 0.038179
4.140361 0.065854 -0.042601 -0.009285 0.900000 0.043601
4.245181 0.065854 -0.050469 -0.006292 0.900000 0.050860
4.350000 0.065854 -0.057854 -0.003423 0.900000 0.057955
4.454819 0.065854 -0.047747 -0.008242 0.900000 0.048454
4.559639 0.065854 -0.031210 -0.010591 0.900000 0.032958
4.664458 0.065854 -0.035483 -0.009795 0.900000 0.036810
4.769277 0.065854 -0.036388 -0.009242 0.900000 0.037543
4.874096 0.065854 -0.026538 -0.013098 0.900000 0.029594
4.978916 0.065854 -0.032031 -0.009113 0.900000 0.033302
5.083735 0.065854 -0.041450 -0.003837 0.900000 0.041627
5.188554 0.065854 -0.050210 -0.002777 0.900000 0.050287
5.293373 0.065854 -0.041490 -0.000314 0.900000 0.041491
5.398193 0.065854 -0.025675 -0.002784 0.900000 0.025826
5.503012 0.065854 -0.021497 -0.004282 0.900000 0.021919
5.607831 0.065854 -0.014252 -0.006496 0.900000 0.015663
5.712651 0.065854 -0.007147 -0.007113 0.900000 0.010083
5.817470 0.065854 -0.004325 -0.006530 0.900000 0.007832
5.922289 0.065854 -0.008652 -0.004779 0.900000 0.009884
6.027108 0.065854 -0.016319 -0.003064 0.900000 0.016604
6.131928 0.065854 -0.025938 -0.003136 0.900000 0.026127
6.236747 0.065854 -0.029641 -0.003295 0.900000 0.029823
6.341566 0.065854 -0.022962 -0.004434 0.900000 0.023386
6.446386 0.065854 -0.024216 -0.002112 0.900000 0.024308
6.551205 0.065854 -0.024718 -0.003975 0.900000 0.025035
6.656024 0.065854 -0.011340 -0.002232 0.900000 0.011558
6.760843 0.065854 -0.003775 -0.004256 0.900000 0.005688
6.865663 0.065854 -0.003813 -0.002152 0.900000 0.004378
6.970482 0.065854 -0.006834 -0.002685 0.900000 0.007343
7.075301 0.065854 -0.006959 0.000188 0.900000 0.006962
7.180120 0.065854 0.001311 0.001859 0.900000 0.002275
7.284940 0.065854 0.002803 -0.002736 0.900000 0.003917
7.389759 0.065854 -0.001157 -0.000379 0.900000 0.001218
7.494578 0.065854 -0.001482 0.000459 0.900000 0.001551
7.599398 0.065854 0.003523 0.001605 0.900000 0.003872
7.704217 0.065854 0.007190 -0.002516 0.900000 0.007617
7.809036 0.065854 0.007377 0.000463 0.900000 0.007391
7.913855 0.065854 0.009038 -0.000007 0.900000 0.009038
8.018675 0.065854 0.013443 -0.003166 0.900000 0.013811
8.123494 0.065854 0.019352 -0.003594 0.900000 0.019683
8.228313 0.065854 0.022476 0.000306 0.900000 0.022478
8.333133 0.065854 0.020884 0.001830 0.900000 0.020964
8.437952 0.065854 0.015263 0.002590 0.900000 0.015481
8.542771 0.065854 0.005776 0.003713 0.900000 0.006867
8.647590 0.065854 0.000000 0.000000 0.000000 0.000000
0.052410 0.080488 0.000000 0.000000 0.000000 0.000000
0.157229 0.080488 0.001467 -0.001372 0.900000 0.002008
0.262048 0.080488 0.003755 -0.001762 0.900000 0.004148
0.366867 0.080488 0.004861 -0.001891 0.900000 0.005216
0.471687 0.080488 0.003999 -0.001530 0.900000 0.004282
0.576506 0.080488 -0.001560 0.007530 0.900000 0.007690
0.681325 0.080488 -0.008921 0.001732 0.900000 0.009088
0.786145 0.080488 -0.010902 -0.004820 0.900000 0.011920
0.890964 0.080488 -0.009088 -0.003653 0.900000 0.009795
0.995783 0.080488 -0.009865 -0.003576 0.900000 0.010493
1.100602 0.080488 -0.012254 -0.004058 0.900000 0.012909
1.205422 0.080488 -0.015517 -0.006895 0.900000 0.016980
1.310241 0.080488 -0.017810 -0.005129 0.900000 0.018534
1.415060 0.080488 -0.018473 -0.004355 0.900000 0.018980
1.519880 0.080488 -0.020655 -0.003515 0.900000 0.020951
1.624699 0.080488 -0.021975 -0.002464 0.900000 0.022113
1.729518 0.080488 -0.017557 -0.004049 0.900000 0.018018
1.834337 0.080488 -0.015255 -0.005819 0.900000 0.016327
1.939157 0.080488 -0.014856 -0.004224 0.900000 0.015445
2.043976 0.080488 -0.007772 -0.002702 0.900000 0.008228
2.148795 0.080488 -0.002703 -0.011089 0.900000 0.011414
2.253614 0.080488 -0.008407 -0.011077 0.900000 0.013906
2.358434 0.080488 -0.015138 -0.006248 0.900000 0.016377
2.463253 0.080488 -0.016568 -0.006844 0.900000 0.017925
2.568072 0.080488 -0.016739 -0.008676 0.900000 0.018854
2.672892 0.080488 -0.014466 -0.012730 0.900000 0.019270
2.777711 0.080488 -0.012640 -0.015190 0.900000 0.019761
2.882530 0.080488 -0.015513 -0.006342 0.900000 0.016759
2.987349 0.080488 -0.031160 -0.003237 0.900000 0.031328
3.092169 0.080488 -0.043680 -0.001834 0.900000 0.043719
3.196988 0.080488 -0.039627 -0.008965 0.900000 0.040628
3.301807 0.080488 -0.035555 -0.009379 0.900000 0.036771
3.406627 0.080488 -0.027066 -0.007717 0.900000 0.028144
3.511446 0.080488 -0.015333 -0.009342 0.900000 0.017955
3.616265 0.080488 -0.011526 -0.007220 0.900000 0.013600
3.721084 0.080488 -0.013518 -0.008152 0.900000 0.015786
3.825904 0.080488 -0.021810 -0.012930 0.900000 0.025355
3.930723 0.080488 -0.029723 -0.009509 0.900000 0.031207
4.035542 0.080488 -0.036120 -0.010833 0.900000 0.037709
4.140361 0.080488 -0.041736 -0.011875 0.900000 0.043392
4.245181 0.080488 -0.049056 -0.006783 0.900000 0.049523
4.350000 0.080488 -0.056262 -0.006749 0.900000 0.056665
4.454819 0.080488 -0.046889 -0.010007 0.900000 0.047945
4.559639 0.080488 -0.031566 -0.013949 0.900000 0.034510
4.664458 0.080488 -0.035536 -0.009460 0.900000 0.036773
4.769277 0.080488 -0.036253 -0.012617 0.900000 0.038386
4.874096 0.080488 -0.027005 -0.014876 0.900000 0.030831
4.978916 0.080488 -0.031451 -0.011762 0.900000 0.033578
5.083735 0.080488 -0.040318 -0.004237 0.900000 0.040540
5.188554 0.080488 -0.048827 -0.002889 0.900000 0.048913
5.293373 0.080488 -0.040188 0.000232 0.900000 0.040189
5.398193 0.080488 -0.024492 -0.003237 0.900000 0.024705
5.503012 0.080488 -0.020199 -0.004840 0.900000 0.020771
5.607831 0.080488 -0.013262 -0.007672 0.900000 0.015322
5.712651 0.080488 -0.006546 -0.007804 0.900000 0.010186
5.817470 0.080488 -0.004039 -0.007829 0.900000 0.008809
5.922289 0.080488 -0.008663 -0.004966 0.900000 0.009985
6.027108 0.080488 -0.015755 -0.004322 0.900000 0.016337
6.131928 0.080488 -0.024266 -0.003791 0.900000 0.024560
6.236747 0.080488 -0.028018 -0.005182 0.900000 0.028493
6.341566 0.080488 -0.021803 -0.004833 0.900000 0.022332
6.446386 0.080488 -0.023007 -0.002647 0.900000 0.023159
6.551205 0.080488 -0.022808 -0.003832 0.900000 0.023128
6.656024 0.080488 -0.009813 -0.003745 0.900000 0.010503
6.760843 0.080488 -0.003087 -0.004047 0.900000 0.005090
6.865663 0.080488 -0.003147 -0.002745 0.900000 0.004177
6.970482 0.080488 -0.005670 -0.002266 0.900000 0.006106
7.075301 0.080488 -0.005419 -0.000818 0.900000 0.005480
7.180120 0.080488 0.001834 0.001166 0.900000 0.002173
7.284940 0.080488 0.003294 -0.002226 0.900000 0.003975
7.389759 0.080488 -0.000134 -0.000252 0.900000 0.000286
7.494578 0.080488 -0.000122 0.000693 0.900000 0.000704
7.599398 0.080488 0.004562 0.000668 0.900000 0.004610
7.704217 0.080488 0.007789 -0.002414 0.900000 0.008155
7.809036 0.080488 0.008443 0.000786 0.900000 0.008479
7.913855 0.080488 0.011251 -0.000238 0.900000 0.011254
8.018675 0.080488 0.015525 -0.003762 0.900000 0.015975
8.123494 0.080488 0.019350 -0.004044 0.900000 0.019768
8.228313 0.080488 0.021189 0.000175 0.900000 0.021190
8.333133 0.080488 0.019874 0.002142 0.900000 0.019989
8.437952 0.080488 0.014789 0.003211 0.900000 0.015134
8.542771 0.080488 0.005626 0.004658 0.900000 0.007304
8.647590 0.080488 0.000000 0.000000 0.000000 0.000000
0.052410 0.095122 0.000000 0.000000 0.000000 0.000000
0.157229 0.095122 0.001256 -0.001539 0.900000 0.001987
0.262048 0.095122 0.003129 -0.002010 0.900000 0.003719
0.366867 0.095122 0.003859 -0.002107 0.900000 0.004397
0.471687 0.095122 0.002529 -0.001493 0.900000 0.002937
0.576506 0.095122 -0.001848 0.008033 0.900000 0.008242
0.681325 0.095122 -0.006859 0.002216 0.900000 0.007208
0.786145 0.095122 -0.008685 -0.004946 0.900000 0.009994
0.890964 0.095122 -0.007801 -0.003861 0.900000 0.008704
0.995783 0.095122 -0.009033 -0.004325 0.900000 0.010015
1.100602 0.095122 -0.011706 -0.004886 0.900000 0.012685
1.205422 0.095122 -0.015014 -0.007494 0.900000 0.016781
1.310241 0.095122 -0.017155 -0.005634 0.900000 0.018056
1.415060 0.095122 -0.017679 -0.004911 0.900000 0.018349
1.519880 0.095122 -0.019430 -0.003453 0.900000 0.019734
1.624699 0.095122 -0.020539 -0.002821 0.900000 0.020732
1.729518 0.095122 -0.016194 -0.004475 0.900000 0.016801
1.834337 0.095122 -0.013173 -0.006269 0.900000 0.014588
1.939157 0.095122 -0.012253 -0.004621 0.900000 0.013095
2.043976 0.095122 -0.006235 -0.004678 0.900000 0.007795
2.148795 0.095122 -0.002798 -0.012037 0.900000 0.012358
2.253614 0.095122 -0.008305 -0.010616 0.900000 0.013479
2.358434 0.095122 -0.014349 -0.006525 0.900000 0.015763
2.463253 0.095122 -0.016150 -0.007359 0.900000 0.017748
2.568072 0.095122 -0.015945 -0.009158 0.900000 0.018388
2.672892 0.095122 -0.013528 -0.014201 0.900000 0.019613
2.777711 0.095122 -0.012657 -0.014602 0.900000 0.019324
2.882530 0.095122 -0.015497 -0.006832 0.900000 0.016937
2.987349 0.095122 -0.029137 -0.002542 0.900000 0.029248
3.092169 0.095122 -0.039834 -0.002940 0.900000 0.039942
3.196988 0.095122 -0.036741 -0.009980 0.900000 0.038072
3.301807 0.095122 -0.035096 -0.010776 0.900000 0.036713
3.406627 0.095122 -0.027126 -0.008306 0.900000 0.028369
3.511446 0.095122 -0.015184 -0.010427 0.900000 0.018419
3.616265 0.095122 -0.011282 -0.007357 0.900000 0.013469
3.721084 0.095122 -0.013530 -0.009443 0.900000 0.016500
3.825904 0.095122 -0.021629 -0.014021 0.900000 0.025776
3.930723 0.095122 -0.028900 -0.010800 0.900000 0.030852
4.035542 0.095122 -0.034803 -0.011528 0.900000 0.036663
4.140361 0.095122 -0.040246 -0.013466 0.900000 0.042439
4.245181 0.095122 -0.047099 -0.007036 0.900000 0.047621
4.350000 0.095122 -0.054003 -0.009365 0.900000 0.054810
4.454819 0.095122 -0.045501 -0.010923 0.900000 0.046794